[ defaults ]
;nbfunc	comb_rule	gen pair	fudgeLJ	fudgeQQ
1	2	yes	1.0	1.0

; Include forcefiled parameters 
#include "oplsaa.ff/ffnonbonded.itp" 

[ atomtypes ]
;name mass charge ptype sig eps
OWT3	8	15.9994	-0.834	A	0.315058	0.636386	 ; input 
HWT3	1	1.008	0.417	A	0.0	0.0	 ; input 
c'	6	12.01115	0.0	A	0.3617	0.619232	 ; input 
cp	6	12.01115	0.0	A	0.3617	0.619232	 ; input 
h	1	1.00797	0.0	A	0.245	0.158992	 ; input 
h*	1	1.00797	0.0	A	0.1	0.0	 ; input 
hn	1	1.00797	0.0	A	0.1	0.0	 ; input 
ho	1	1.00797	0.0	A	0.1	0.0	 ; input 
n	7	14.0067	0.0	A	0.35012	0.698728	 ; input 
n2	7	14.0067	0.0	A	0.35012	0.698728	 ; input 
o'	8	15.9994	0.0	A	0.28598	0.953952	 ; input 
o*	8	15.9994	0.0	A	0.31655	0.650194	 ; input 
oh	8	15.9994	0.0	A	0.28598	0.953952	 ; input 
CB	6	12.011	0.0	A	0.355005	0.29288	 ; reference 
HCMM	1	1.0079	0.0	A	0.235197	0.092048	 ; reference 
NC=C	7	14.0067	0.0	A	0.329632	0.8368	 ; reference 
HNCO	1	1.0079	0.0	A	0.040001	0.192464	 ; reference 
OR	8	15.9994	0.0	A	0.315378	0.636386	 ; reference 
C=O	6	12.011	0.0	A	0.356359	0.46024	 ; reference 
O=C	8	15.9994	0.0	A	0.302905	0.50208	 ; reference 
CO2M	6	12.011	0.0	A	0.356359	0.29288	 ; reference 
O2CM	8	15.9994	0.0	A	0.302905	0.50208	 ; reference 
HOCO	1	1.0079	0.0	A	0.040001	0.192464	 ; reference 
NC=O	7	14.0067	0.0	A	0.329632	0.8368	 ; reference 

[ bondtypes ]
c'	cp	1	0.1472	293928.26	 ; input 
c'	n	1	0.132	324678.4	 ; input 
c'	o'	1	0.123	514901.45	 ; input 
c'	oh	1	0.137	334720.0	 ; input 
cp	cp	1	0.134	401664.0	 ; input 
cp	h	1	0.108	304106.84	 ; input 
cp	n	1	0.142	234304.0	 ; input 
cp	n2	1	0.132	324678.4	 ; input 
h*	o*	1	0.096	452402.2	 ; input 
hn	n	1	0.1026	404551.96	 ; input 
hn	n2	1	0.1026	382801.86	 ; input 
ho	oh	1	0.096	452402.2	 ; input 
CB	CB	1	0.1374	335613.7	0.1374	335613.7	 ; reference 
CB	HCMM	1	0.1084	319534.6	0.1084	319534.6	 ; reference 
CB	NC=C	1	0.1398	371445.5	0.1398	371445.5	 ; reference 
HNCO	NC=C	1	0.1018	396015.6	0.1018	396015.6	 ; reference 
C=O	OR	1	0.1355	349343.9	0.1355	349343.9	 ; reference 
C=O	O=C	1	0.1222	779866.6	0.1222	779866.6	 ; reference 
C=O	CB	1	0.1457	270273.8	0.1457	270273.8	 ; reference 
CB	CO2M	1	0.1468	273224.4	0.1468	273224.4	 ; reference 
CO2M	O2CM	1	0.1261	587519.8	0.1261	587519.8	 ; reference 
HOCO	OR	1	0.0981	445818.6	0.0981	445818.6	 ; reference 
CB	NC=O	1	0.1395	330133.5	0.1395	330133.5	 ; reference 
C=O	NC=O	1	0.1369	351030.1	0.1369	351030.1	 ; reference 
HNCO	NC=O	1	0.1015	401254.8	0.1015	401254.8	 ; reference 

[ angletypes ]
c'	cp	cp	1	120.0	290.2	 ; input 
c'	n	cp	1	120.0	418.4	 ; input 
c'	n	hn	1	115.0	313.8	 ; input 
c'	oh	ho	1	112.0	418.4	 ; input 
cp	c'	n	1	114.0	686.18	 ; input 
cp	c'	o'	1	120.0	456.01	 ; input 
cp	c'	oh	1	120.0	456.01	 ; input 
cp	cp	cp	1	120.0	753.12	 ; input 
cp	cp	h	1	120.0	309.62	 ; input 
cp	cp	n	1	120.0	853.54	 ; input 
cp	cp	n2	1	120.0	853.54	 ; input 
cp	n	hn	1	115.0	313.8	 ; input 
cp	n2	hn	1	115.0	313.8	 ; input 
h*	o*	h*	1	104.5	418.4	 ; input 
hn	n2	hn	1	125.0	276.14	 ; input 
n	c'	o'	1	120.0	569.02	 ; input 
o'	c'	oh	1	123.0	1213.36	 ; input 
CB	CB	CB	1	119.977	402.88	119.977	402.88	 ; reference 
CB	CB	HCMM	1	120.571	339.05	120.571	339.05	 ; reference 
CB	CB	NC=C	1	121.633	629.31	121.633	629.31	 ; reference 
CB	NC=C	HNCO	1	110.288	398.66	110.288	398.66	 ; reference 
HNCO	NC=C	HNCO	1	109.16	337.24	109.16	337.24	 ; reference 
C=O	OR	HOCO	1	111.948	351.09	111.948	351.09	 ; reference 
O=C	C=O	OR	1	124.425	695.55	124.425	695.55	 ; reference 
CB	C=O	OR	1	102.881	486.58	102.881	486.58	 ; reference 
CB	C=O	O=C	1	119.968	442.02	119.968	442.02	 ; reference 
C=O	CB	CB	1	114.475	480.57	114.475	480.57	 ; reference 
CB	CB	CO2M	1	119.572	537.17	119.572	537.17	 ; reference 
CB	CO2M	O2CM	1	118.871	684.11	118.871	684.11	 ; reference 
O2CM	CO2M	O2CM	1	130.6	711.2	130.6	711.2	 ; reference 
CB	CB	NC=O	1	117.918	617.27	117.918	617.27	 ; reference 
C=O	NC=O	CB	1	118.596	616.06	118.596	616.06	 ; reference 
CB	NC=O	HNCO	1	118.227	378.18	118.227	378.18	 ; reference 
C=O	NC=O	HNCO	1	120.277	346.27	120.277	346.27	 ; reference 
NC=O	C=O	O=C	1	127.152	546.2	127.152	546.2	 ; reference 
CB	C=O	NC=O	1	112.495	663.03	112.495	663.03	 ; reference 

[ dihedraltypes ]
c'	cp	cp	cp	9	180.0	50.208	2	 ; input 
c'	cp	cp	cp	9	180.0	50.208	2	 ; input 
c'	cp	cp	h	9	180.0	50.208	2	 ; input 
c'	cp	cp	h	9	180.0	50.208	2	 ; input 
cp	c'	n	cp	9	3.2	0.0	0	 ; input 
cp	c'	n	cp	9	3.2	0.0	0	 ; input 
cp	c'	n	hn	9	1.2	0.0	0	 ; input 
cp	c'	n	hn	9	1.2	0.0	0	 ; input 
cp	c'	oh	ho	9	180.0	18.828	2	 ; input 
cp	c'	oh	ho	9	180.0	18.828	2	 ; input 
cp	cp	cp	cp	9	180.0	50.208	2	 ; input 
cp	cp	cp	cp	9	180.0	50.208	2	 ; input 
cp	cp	cp	h	9	180.0	50.208	2	 ; input 
cp	cp	cp	h	9	180.0	50.208	2	 ; input 
cp	cp	cp	n	9	180.0	50.208	2	 ; input 
cp	cp	cp	n	9	180.0	50.208	2	 ; input 
cp	cp	cp	n2	9	180.0	50.208	2	 ; input 
cp	cp	cp	n2	9	180.0	50.208	2	 ; input 
c'	n	cp	cp	9	180.0	41.84	2	 ; input 
c'	n	cp	cp	9	180.0	41.84	2	 ; input 
cp	cp	n	hn	9	180.0	41.84	2	 ; input 
cp	cp	n	hn	9	180.0	41.84	2	 ; input 
cp	cp	n2	hn	9	180.0	41.84	2	 ; input 
cp	cp	n2	hn	9	180.0	41.84	2	 ; input 
h	cp	cp	h	9	180.0	50.208	2	 ; input 
h	cp	cp	h	9	180.0	50.208	2	 ; input 
h	cp	cp	n	9	180.0	50.208	2	 ; input 
h	cp	cp	n	9	180.0	50.208	2	 ; input 
h	cp	cp	n2	9	180.0	50.208	2	 ; input 
h	cp	cp	n2	9	180.0	50.208	2	 ; input 
cp	cp	c'	n	9	180.0	41.84	2	 ; input 
cp	cp	c'	n	9	180.0	41.84	2	 ; input 
cp	cp	c'	o'	9	180.0	41.84	2	 ; input 
cp	cp	c'	o'	9	180.0	41.84	2	 ; input 
cp	n	c'	o'	9	3.2	0.0	0	 ; input 
cp	n	c'	o'	9	3.2	0.0	0	 ; input 
hn	n	c'	o'	9	180.0	7.5312	2	 ; input 
hn	n	c'	o'	9	180.0	7.5312	2	 ; input 
ho	oh	c'	o'	9	180.0	18.828	2	 ; input 
ho	oh	c'	o'	9	180.0	18.828	2	 ; input 
cp	cp	c'	oh	9	180.0	41.84	2	 ; input 
cp	cp	c'	oh	9	180.0	41.84	2	 ; input 
CB	CB	CB	CB	9	180.0	14.644	2	180.0	14.644	2	 ; reference 
CB	CB	CB	HCMM	9	180.0	14.644	2	180.0	14.644	2	 ; reference 
CB	CB	NC=C	HNCO	9	0.0	1.4937	1	0.0	1.4937	1	 ; reference 
CB	CB	NC=C	HNCO	9	180.0	5.4978	2	180.0	5.4978	2	 ; reference 
CB	CB	NC=C	HNCO	9	0.0	7.0166	3	0.0	7.0166	3	 ; reference 
CB	CB	CB	NC=C	9	180.0	14.644	2	180.0	14.644	2	 ; reference 
HCMM	CB	CB	NC=C	9	180.0	14.644	2	180.0	14.644	2	 ; reference 
HCMM	CB	CB	HCMM	9	180.0	14.644	2	180.0	14.644	2	 ; reference 
CB	CB	C=O	OR	9	180.0	3.6484	2	180.0	3.6484	2	 ; reference 
C=O	CB	CB	CB	9	180.0	4.184	2	180.0	4.184	2	 ; reference 
C=O	CB	CB	HCMM	9	180.0	4.184	2	180.0	4.184	2	 ; reference 
HOCO	OR	C=O	O=C	9	0.0	3.4769	1	0.0	3.4769	1	 ; reference 
HOCO	OR	C=O	O=C	9	180.0	12.87	2	180.0	12.87	2	 ; reference 
HOCO	OR	C=O	O=C	9	0.0	-0.1213	3	0.0	-0.1213	3	 ; reference 
CB	CB	C=O	O=C	9	180.0	5.23	2	180.0	5.23	2	 ; reference 
CB	C=O	OR	HOCO	9	180.0	8.1421	2	180.0	8.1421	2	 ; reference 
CB	C=O	OR	HOCO	9	0.0	-0.1966	3	0.0	-0.1966	3	 ; reference 
CB	CB	CB	CO2M	9	180.0	14.644	2	180.0	14.644	2	 ; reference 
CB	CB	CO2M	O2CM	9	180.0	3.7656	2	180.0	3.7656	2	 ; reference 
CO2M	CB	CB	HCMM	9	180.0	14.644	2	180.0	14.644	2	 ; reference 
CB	CB	CB	NC=O	9	180.0	14.644	2	180.0	14.644	2	 ; reference 
C=O	NC=O	CB	CB	9	180.0	12.552	2	180.0	12.552	2	 ; reference 
CB	CB	NC=O	HNCO	9	180.0	12.552	2	180.0	12.552	2	 ; reference 
CB	NC=O	C=O	O=C	9	180.0	12.552	2	180.0	12.552	2	 ; reference 
CB	NC=O	C=O	CB	9	180.0	12.552	2	180.0	12.552	2	 ; reference 
HCMM	CB	CB	NC=O	9	180.0	14.644	2	180.0	14.644	2	 ; reference 
CB	CB	C=O	NC=O	9	180.0	5.23	2	180.0	5.23	2	 ; reference 
HNCO	NC=O	C=O	O=C	9	0.0	3.0041	1	0.0	3.0041	1	 ; reference 
HNCO	NC=O	C=O	O=C	9	180.0	10.4056	2	180.0	10.4056	2	 ; reference 
HNCO	NC=O	C=O	O=C	9	0.0	-0.9498	3	0.0	-0.9498	3	 ; reference 
CB	C=O	NC=O	HNCO	9	180.0	12.552	2	180.0	12.552	2	 ; reference 
CB	C=O	NC=O	CB	9	180.0	12.552	2	180.0	12.552	2	 ; reference 
c'	cp	cp	cp	4	180.0	41.84	2	 ; input 
c'	cp	cp	cp	4	180.0	41.84	2	 ; input 
c'	n	cp	hn	4	180.0	0.2092	2	 ; input 
c'	n	cp	hn	4	180.0	0.2092	2	 ; input 
cp	c'	n	o'	4	180.0	41.84	2	 ; input 
cp	c'	n	o'	4	180.0	41.84	2	 ; input 
cp	c'	o'	oh	4	180.0	41.84	2	 ; input 
cp	c'	o'	oh	4	180.0	41.84	2	 ; input 
cp	cp	cp	cp	4	180.0	1.5481	2	 ; input 
cp	cp	cp	cp	4	180.0	1.5481	2	 ; input 
cp	cp	cp	h	4	180.0	1.5481	2	 ; input 
cp	cp	cp	h	4	180.0	1.5481	2	 ; input 
cp	cp	cp	n	4	180.0	1.5481	2	 ; input 
cp	cp	cp	n	4	180.0	1.5481	2	 ; input 
cp	cp	cp	n2	4	180.0	1.5481	2	 ; input 
cp	cp	cp	n2	4	180.0	1.5481	2	 ; input 
cp	n2	hn	hn	4	180.0	0.0	2	 ; input 
cp	n2	hn	hn	4	180.0	0.0	2	 ; input 
CB	CB	HCMM	CB	2	0.0	9.0291	0.0	9.0291	 ; input 
CB	HCMM	CB	CB	2	0.0	9.0291	0.0	9.0291	 ; input 
HCMM	CB	CB	CB	2	0.0	9.0291	0.0	9.0291	 ; input 
NC=C	CB	CB	CB	2	0.0	27.6981	0.0	27.6981	 ; input 
CB	HNCO	NC=C	HNCO	2	0.0	2.41	0.0	2.41	 ; input 
HNCO	NC=C	HNCO	CB	2	0.0	2.41	0.0	2.41	 ; input 
NC=C	HNCO	CB	HNCO	2	0.0	2.41	0.0	2.41	 ; input 
CB	CB	CB	C=O	2	0.0	16.259	0.0	16.259	 ; input 
OR	CB	O=C	C=O	2	0.0	76.4835	0.0	76.4835	 ; input 
CB	O=C	C=O	OR	2	0.0	76.4835	0.0	76.4835	 ; input 
O=C	C=O	OR	CB	2	0.0	76.4835	0.0	76.4835	 ; input 
O=C	CB	OR	C=O	2	0.0	76.4835	0.0	76.4835	 ; input 
CB	OR	C=O	O=C	2	0.0	76.4835	0.0	76.4835	 ; input 
OR	C=O	O=C	CB	2	0.0	76.4835	0.0	76.4835	 ; input 
C=O	O=C	CB	OR	2	0.0	76.4835	0.0	76.4835	 ; input 
NC=O	CB	CB	CB	2	0.0	21.079	0.0	21.079	 ; input 
CB	C=O	NC=O	HNCO	2	0.0	-12.0416	0.0	-12.0416	 ; input 
C=O	NC=O	HNCO	CB	2	0.0	-12.0416	0.0	-12.0416	 ; input 
NC=O	HNCO	CB	C=O	2	0.0	-12.0416	0.0	-12.0416	 ; input 
NC=O	C=O	CB	HNCO	2	0.0	-12.0416	0.0	-12.0416	 ; input 
C=O	CB	HNCO	NC=O	2	0.0	-12.0416	0.0	-12.0416	 ; input 
CB	HNCO	NC=O	C=O	2	0.0	-12.0416	0.0	-12.0416	 ; input 
HNCO	NC=O	C=O	CB	2	0.0	-12.0416	0.0	-12.0416	 ; input 
CB	NC=O	O=C	C=O	2	0.0	78.291	0.0	78.291	 ; input 
NC=O	O=C	C=O	CB	2	0.0	78.291	0.0	78.291	 ; input 
O=C	C=O	CB	NC=O	2	0.0	78.291	0.0	78.291	 ; input 
O=C	NC=O	CB	C=O	2	0.0	78.291	0.0	78.291	 ; input 
NC=O	CB	C=O	O=C	2	0.0	78.291	0.0	78.291	 ; input 
CB	C=O	O=C	NC=O	2	0.0	78.291	0.0	78.291	 ; input 
C=O	O=C	NC=O	CB	2	0.0	78.291	0.0	78.291	 ; input 
NC=O	CB	O=C	C=O	2	0.0	78.291	0.0	78.291	 ; input 
CB	O=C	C=O	NC=O	2	0.0	78.291	0.0	78.291	 ; input 
O=C	C=O	NC=O	CB	2	0.0	78.291	0.0	78.291	 ; input 
O=C	CB	NC=O	C=O	2	0.0	78.291	0.0	78.291	 ; input 
CB	NC=O	C=O	O=C	2	0.0	78.291	0.0	78.291	 ; input 
NC=O	C=O	O=C	CB	2	0.0	78.291	0.0	78.291	 ; input 
C=O	O=C	CB	NC=O	2	0.0	78.291	0.0	78.291	 ; input 
C=O	CB	NC=O	HNCO	2	0.0	-12.0416	0.0	-12.0416	 ; input 
CB	NC=O	HNCO	C=O	2	0.0	-12.0416	0.0	-12.0416	 ; input 
NC=O	HNCO	C=O	CB	2	0.0	-12.0416	0.0	-12.0416	 ; input 
NC=O	CB	C=O	HNCO	2	0.0	-12.0416	0.0	-12.0416	 ; input 
CB	C=O	HNCO	NC=O	2	0.0	-12.0416	0.0	-12.0416	 ; input 
C=O	HNCO	NC=O	CB	2	0.0	-12.0416	0.0	-12.0416	 ; input 
HNCO	NC=O	CB	C=O	2	0.0	-12.0416	0.0	-12.0416	 ; input 
CB	CB	CB	HCMM	2	0.0	9.0291	0.0	9.0291	 ; reference 
CB	CB	CB	NC=C	2	0.0	27.6981	0.0	27.6981	 ; reference 
CB	NC=C	CB	CB	2	0.0	27.6981	0.0	27.6981	 ; reference 
HNCO	CB	HNCO	NC=C	2	0.0	2.41	0.0	2.41	 ; reference 
C=O	CB	OR	O=C	2	0.0	76.4835	0.0	76.4835	 ; reference 
CB	CB	C=O	CB	2	0.0	16.259	0.0	16.259	 ; reference 
CB	CB	CB	CO2M	2	0.0	21.079	0.0	21.079	 ; reference 
C=O	CB	CB	CB	2	0.0	16.259	0.0	16.259	 ; reference 
C=O	OR	CB	O=C	2	0.0	76.4835	0.0	76.4835	 ; reference 
CO2M	O2CM	CB	O2CM	2	0.0	108.3991	0.0	108.3991	 ; reference 
CB	C=O	CB	CB	2	0.0	16.259	0.0	16.259	 ; reference 
CB	CB	NC=C	CB	2	0.0	27.6981	0.0	27.6981	 ; reference 
CB	NC=O	CB	CB	2	0.0	21.079	0.0	21.079	 ; reference 
HNCO	CB	C=O	NC=O	2	0.0	-12.0416	0.0	-12.0416	 ; reference 
C=O	CB	NC=O	O=C	2	0.0	78.291	0.0	78.291	 ; reference 
CB	CB	CB	NC=O	2	0.0	21.079	0.0	21.079	 ; reference 
C=O	NC=O	CB	O=C	2	0.0	78.291	0.0	78.291	 ; reference 
HNCO	C=O	CB	NC=O	2	0.0	-12.0416	0.0	-12.0416	 ; reference 
CB	CB	NC=O	CB	2	0.0	21.079	0.0	21.079	 ; reference 


[ moleculetype ]
; Name	nrexcl
MOL1	3

[ atoms ]
;nr	type	resnr	residue	atom	cgnr	charge	mass
1	OR	1	TCq1	O1	1	-0.65	15.9994
2	C=O	1	TCq1	C1	1	0.6338	12.011
3	O=C	1	TCq1	O2	1	-0.57	15.9994
4	CB	1	TCq1	C2	1	0.0862	12.011
5	CB	1	TCq1	C3	1	-0.15	12.011
6	CB	1	TCq1	C4	1	-0.179	12.011
7	CB	1	TCq1	C5	1	-0.15	12.011
8	CB	1	TCq1	C6	1	0.0862	12.011
9	CB	1	TCq1	C7	1	-0.15	12.011
10	C=O	1	TCq1	C8	1	0.5438	12.011
11	O=C	1	TCq1	O4	1	-0.57	15.9994
12	CO2M	1	TCq1	C9	1	0.979	12.011
13	O2CM	1	TCq1	O5	1	-0.9	15.9994
14	O2CM	1	TCq1	O6	1	-0.9	15.9994
15	HOCO	1	TCq1	H1	1	0.5	1.0079
16	HCMM	1	TCq1	H2	1	0.15	1.0079
17	HCMM	1	TCq1	H3	1	0.15	1.0079
18	HCMM	1	TCq1	H4	1	0.15	1.0079
19	CB	2	MPD2	C	1	-0.15	12.011
20	CB	2	MPD2	C1	1	0.117	12.011
21	CB	2	MPD2	C2	1	-0.15	12.011
22	CB	2	MPD2	C3	1	0.117	12.011
23	CB	2	MPD2	C4	1	-0.15	12.011
24	CB	2	MPD2	C5	1	-0.15	12.011
25	HCMM	2	MPD2	H	1	0.15	1.0079
26	HCMM	2	MPD2	H1	1	0.15	1.0079
27	HCMM	2	MPD2	H2	1	0.15	1.0079
28	HCMM	2	MPD2	H3	1	0.15	1.0079
29	NC=O	2	MPD2	N	1	-0.547	14.0067
30	HNCO	2	MPD2	H5	1	0.37	1.0079
31	NC=O	2	MPD2	N1	1	-0.547	14.0067
32	HNCO	2	MPD2	H7	1	0.37	1.0079
33	OR	3	TCq1	O1	1	-0.65	15.9994
34	C=O	3	TCq1	C1	1	0.6338	12.011
35	O=C	3	TCq1	O2	1	-0.57	15.9994
36	CB	3	TCq1	C2	1	0.0862	12.011
37	CB	3	TCq1	C3	1	-0.15	12.011
38	CB	3	TCq1	C4	1	-0.179	12.011
39	CB	3	TCq1	C5	1	-0.15	12.011
40	CB	3	TCq1	C6	1	0.0862	12.011
41	CB	3	TCq1	C7	1	-0.15	12.011
42	C=O	3	TCq1	C8	1	0.5438	12.011
43	O=C	3	TCq1	O4	1	-0.57	15.9994
44	CO2M	3	TCq1	C9	1	0.979	12.011
45	O2CM	3	TCq1	O5	1	-0.9	15.9994
46	O2CM	3	TCq1	O6	1	-0.9	15.9994
47	HOCO	3	TCq1	H1	1	0.5	1.0079
48	HCMM	3	TCq1	H2	1	0.15	1.0079
49	HCMM	3	TCq1	H3	1	0.15	1.0079
50	HCMM	3	TCq1	H4	1	0.15	1.0079
51	CB	4	MPD2	C	1	-0.15	12.011
52	CB	4	MPD2	C1	1	0.117	12.011
53	CB	4	MPD2	C2	1	-0.15	12.011
54	CB	4	MPD2	C3	1	0.117	12.011
55	CB	4	MPD2	C4	1	-0.15	12.011
56	CB	4	MPD2	C5	1	-0.15	12.011
57	HCMM	4	MPD2	H	1	0.15	1.0079
58	HCMM	4	MPD2	H1	1	0.15	1.0079
59	HCMM	4	MPD2	H2	1	0.15	1.0079
60	HCMM	4	MPD2	H3	1	0.15	1.0079
61	NC=O	4	MPD2	N	1	-0.547	14.0067
62	HNCO	4	MPD2	H5	1	0.37	1.0079
63	NC=O	4	MPD2	N1	1	-0.547	14.0067
64	HNCO	4	MPD2	H7	1	0.37	1.0079
65	OR	5	TCq1	O1	1	-0.65	15.9994
66	C=O	5	TCq1	C1	1	0.6338	12.011
67	O=C	5	TCq1	O2	1	-0.57	15.9994
68	CB	5	TCq1	C2	1	0.0862	12.011
69	CB	5	TCq1	C3	1	-0.15	12.011
70	CB	5	TCq1	C4	1	-0.179	12.011
71	CB	5	TCq1	C5	1	-0.15	12.011
72	CB	5	TCq1	C6	1	0.0862	12.011
73	CB	5	TCq1	C7	1	-0.15	12.011
74	C=O	5	TCq1	C8	1	0.5438	12.011
75	O=C	5	TCq1	O4	1	-0.57	15.9994
76	CO2M	5	TCq1	C9	1	0.979	12.011
77	O2CM	5	TCq1	O5	1	-0.9	15.9994
78	O2CM	5	TCq1	O6	1	-0.9	15.9994
79	HOCO	5	TCq1	H1	1	0.5	1.0079
80	HCMM	5	TCq1	H2	1	0.15	1.0079
81	HCMM	5	TCq1	H3	1	0.15	1.0079
82	HCMM	5	TCq1	H4	1	0.15	1.0079
83	CB	6	MPD2	C	1	-0.15	12.011
84	CB	6	MPD2	C1	1	0.117	12.011
85	CB	6	MPD2	C2	1	-0.15	12.011
86	CB	6	MPD2	C3	1	0.117	12.011
87	CB	6	MPD2	C4	1	-0.15	12.011
88	CB	6	MPD2	C5	1	-0.15	12.011
89	HCMM	6	MPD2	H	1	0.15	1.0079
90	HCMM	6	MPD2	H1	1	0.15	1.0079
91	HCMM	6	MPD2	H2	1	0.15	1.0079
92	HCMM	6	MPD2	H3	1	0.15	1.0079
93	NC=O	6	MPD2	N	1	-0.547	14.0067
94	HNCO	6	MPD2	H5	1	0.37	1.0079
95	NC=O	6	MPD2	N1	1	-0.547	14.0067
96	HNCO	6	MPD2	H7	1	0.37	1.0079
97	OR	7	TCq1	O1	1	-0.65	15.9994
98	C=O	7	TCq1	C1	1	0.6338	12.011
99	O=C	7	TCq1	O2	1	-0.57	15.9994
100	CB	7	TCq1	C2	1	0.0862	12.011
101	CB	7	TCq1	C3	1	-0.15	12.011
102	CB	7	TCq1	C4	1	-0.179	12.011
103	CB	7	TCq1	C5	1	-0.15	12.011
104	CB	7	TCq1	C6	1	0.0862	12.011
105	CB	7	TCq1	C7	1	-0.15	12.011
106	C=O	7	TCq1	C8	1	0.5438	12.011
107	O=C	7	TCq1	O4	1	-0.57	15.9994
108	CO2M	7	TCq1	C9	1	0.979	12.011
109	O2CM	7	TCq1	O5	1	-0.9	15.9994
110	O2CM	7	TCq1	O6	1	-0.9	15.9994
111	HOCO	7	TCq1	H1	1	0.5	1.0079
112	HCMM	7	TCq1	H2	1	0.15	1.0079
113	HCMM	7	TCq1	H3	1	0.15	1.0079
114	HCMM	7	TCq1	H4	1	0.15	1.0079
115	CB	8	MPD2	C	1	-0.15	12.011
116	CB	8	MPD2	C1	1	0.117	12.011
117	CB	8	MPD2	C2	1	-0.15	12.011
118	CB	8	MPD2	C3	1	0.117	12.011
119	CB	8	MPD2	C4	1	-0.15	12.011
120	CB	8	MPD2	C5	1	-0.15	12.011
121	HCMM	8	MPD2	H	1	0.15	1.0079
122	HCMM	8	MPD2	H1	1	0.15	1.0079
123	HCMM	8	MPD2	H2	1	0.15	1.0079
124	HCMM	8	MPD2	H3	1	0.15	1.0079
125	NC=O	8	MPD2	N	1	-0.547	14.0067
126	HNCO	8	MPD2	H5	1	0.37	1.0079
127	NC=O	8	MPD2	N1	1	-0.547	14.0067
128	HNCO	8	MPD2	H7	1	0.37	1.0079
129	OR	9	TCq1	O1	1	-0.65	15.9994
130	C=O	9	TCq1	C1	1	0.6338	12.011
131	O=C	9	TCq1	O2	1	-0.57	15.9994
132	CB	9	TCq1	C2	1	0.0862	12.011
133	CB	9	TCq1	C3	1	-0.15	12.011
134	CB	9	TCq1	C4	1	-0.179	12.011
135	CB	9	TCq1	C5	1	-0.15	12.011
136	CB	9	TCq1	C6	1	0.0862	12.011
137	CB	9	TCq1	C7	1	-0.15	12.011
138	C=O	9	TCq1	C8	1	0.5438	12.011
139	O=C	9	TCq1	O4	1	-0.57	15.9994
140	CO2M	9	TCq1	C9	1	0.979	12.011
141	O2CM	9	TCq1	O5	1	-0.9	15.9994
142	O2CM	9	TCq1	O6	1	-0.9	15.9994
143	HOCO	9	TCq1	H1	1	0.5	1.0079
144	HCMM	9	TCq1	H2	1	0.15	1.0079
145	HCMM	9	TCq1	H3	1	0.15	1.0079
146	HCMM	9	TCq1	H4	1	0.15	1.0079
147	CB	10	MPD2	C	1	-0.15	12.011
148	CB	10	MPD2	C1	1	0.117	12.011
149	CB	10	MPD2	C2	1	-0.15	12.011
150	CB	10	MPD2	C3	1	0.117	12.011
151	CB	10	MPD2	C4	1	-0.15	12.011
152	CB	10	MPD2	C5	1	-0.15	12.011
153	HCMM	10	MPD2	H	1	0.15	1.0079
154	HCMM	10	MPD2	H1	1	0.15	1.0079
155	HCMM	10	MPD2	H2	1	0.15	1.0079
156	HCMM	10	MPD2	H3	1	0.15	1.0079
157	NC=O	10	MPD2	N	1	-0.547	14.0067
158	HNCO	10	MPD2	H5	1	0.37	1.0079
159	NC=O	10	MPD2	N1	1	-0.547	14.0067
160	HNCO	10	MPD2	H7	1	0.37	1.0079
161	OR	11	TCq1	O1	1	-0.65	15.9994
162	C=O	11	TCq1	C1	1	0.6338	12.011
163	O=C	11	TCq1	O2	1	-0.57	15.9994
164	CB	11	TCq1	C2	1	0.0862	12.011
165	CB	11	TCq1	C3	1	-0.15	12.011
166	CB	11	TCq1	C4	1	-0.179	12.011
167	CB	11	TCq1	C5	1	-0.15	12.011
168	CB	11	TCq1	C6	1	0.0862	12.011
169	CB	11	TCq1	C7	1	-0.15	12.011
170	C=O	11	TCq1	C8	1	0.5438	12.011
171	O=C	11	TCq1	O4	1	-0.57	15.9994
172	CO2M	11	TCq1	C9	1	0.979	12.011
173	O2CM	11	TCq1	O5	1	-0.9	15.9994
174	O2CM	11	TCq1	O6	1	-0.9	15.9994
175	HOCO	11	TCq1	H1	1	0.5	1.0079
176	HCMM	11	TCq1	H2	1	0.15	1.0079
177	HCMM	11	TCq1	H3	1	0.15	1.0079
178	HCMM	11	TCq1	H4	1	0.15	1.0079
179	CB	12	MPD2	C	1	-0.15	12.011
180	CB	12	MPD2	C1	1	0.117	12.011
181	CB	12	MPD2	C2	1	-0.15	12.011
182	CB	12	MPD2	C3	1	0.117	12.011
183	CB	12	MPD2	C4	1	-0.15	12.011
184	CB	12	MPD2	C5	1	-0.15	12.011
185	HCMM	12	MPD2	H	1	0.15	1.0079
186	HCMM	12	MPD2	H1	1	0.15	1.0079
187	HCMM	12	MPD2	H2	1	0.15	1.0079
188	HCMM	12	MPD2	H3	1	0.15	1.0079
189	NC=O	12	MPD2	N	1	-0.547	14.0067
190	HNCO	12	MPD2	H5	1	0.37	1.0079
191	NC=O	12	MPD2	N1	1	-0.547	14.0067
192	HNCO	12	MPD2	H7	1	0.37	1.0079
193	OR	13	TCq1	O1	1	-0.65	15.9994
194	C=O	13	TCq1	C1	1	0.6338	12.011
195	O=C	13	TCq1	O2	1	-0.57	15.9994
196	CB	13	TCq1	C2	1	0.0862	12.011
197	CB	13	TCq1	C3	1	-0.15	12.011
198	CB	13	TCq1	C4	1	-0.179	12.011
199	CB	13	TCq1	C5	1	-0.15	12.011
200	CB	13	TCq1	C6	1	0.0862	12.011
201	CB	13	TCq1	C7	1	-0.15	12.011
202	C=O	13	TCq1	C8	1	0.5438	12.011
203	O=C	13	TCq1	O4	1	-0.57	15.9994
204	CO2M	13	TCq1	C9	1	0.979	12.011
205	O2CM	13	TCq1	O5	1	-0.9	15.9994
206	O2CM	13	TCq1	O6	1	-0.9	15.9994
207	HOCO	13	TCq1	H1	1	0.5	1.0079
208	HCMM	13	TCq1	H2	1	0.15	1.0079
209	HCMM	13	TCq1	H3	1	0.15	1.0079
210	HCMM	13	TCq1	H4	1	0.15	1.0079
211	CB	14	MPD2	C	1	-0.15	12.011
212	CB	14	MPD2	C1	1	0.117	12.011
213	CB	14	MPD2	C2	1	-0.15	12.011
214	CB	14	MPD2	C3	1	0.117	12.011
215	CB	14	MPD2	C4	1	-0.15	12.011
216	CB	14	MPD2	C5	1	-0.15	12.011
217	HCMM	14	MPD2	H	1	0.15	1.0079
218	HCMM	14	MPD2	H1	1	0.15	1.0079
219	HCMM	14	MPD2	H2	1	0.15	1.0079
220	HCMM	14	MPD2	H3	1	0.15	1.0079
221	NC=O	14	MPD2	N	1	-0.547	14.0067
222	HNCO	14	MPD2	H5	1	0.37	1.0079
223	NC=O	14	MPD2	N1	1	-0.547	14.0067
224	HNCO	14	MPD2	H7	1	0.37	1.0079
225	OR	15	TCq1	O1	1	-0.65	15.9994
226	C=O	15	TCq1	C1	1	0.6338	12.011
227	O=C	15	TCq1	O2	1	-0.57	15.9994
228	CB	15	TCq1	C2	1	0.0862	12.011
229	CB	15	TCq1	C3	1	-0.15	12.011
230	CB	15	TCq1	C4	1	-0.179	12.011
231	CB	15	TCq1	C5	1	-0.15	12.011
232	CB	15	TCq1	C6	1	0.0862	12.011
233	CB	15	TCq1	C7	1	-0.15	12.011
234	C=O	15	TCq1	C8	1	0.5438	12.011
235	O=C	15	TCq1	O4	1	-0.57	15.9994
236	CO2M	15	TCq1	C9	1	0.979	12.011
237	O2CM	15	TCq1	O5	1	-0.9	15.9994
238	O2CM	15	TCq1	O6	1	-0.9	15.9994
239	HOCO	15	TCq1	H1	1	0.5	1.0079
240	HCMM	15	TCq1	H2	1	0.15	1.0079
241	HCMM	15	TCq1	H3	1	0.15	1.0079
242	HCMM	15	TCq1	H4	1	0.15	1.0079
243	CB	16	MPD2	C	1	-0.15	12.011
244	CB	16	MPD2	C1	1	0.117	12.011
245	CB	16	MPD2	C2	1	-0.15	12.011
246	CB	16	MPD2	C3	1	0.117	12.011
247	CB	16	MPD2	C4	1	-0.15	12.011
248	CB	16	MPD2	C5	1	-0.15	12.011
249	HCMM	16	MPD2	H	1	0.15	1.0079
250	HCMM	16	MPD2	H1	1	0.15	1.0079
251	HCMM	16	MPD2	H2	1	0.15	1.0079
252	HCMM	16	MPD2	H3	1	0.15	1.0079
253	NC=O	16	MPD2	N	1	-0.547	14.0067
254	HNCO	16	MPD2	H5	1	0.37	1.0079
255	NC=O	16	MPD2	N1	1	-0.547	14.0067
256	HNCO	16	MPD2	H7	1	0.37	1.0079
257	OR	17	TCq1	O1	1	-0.65	15.9994
258	C=O	17	TCq1	C1	1	0.6338	12.011
259	O=C	17	TCq1	O2	1	-0.57	15.9994
260	CB	17	TCq1	C2	1	0.0862	12.011
261	CB	17	TCq1	C3	1	-0.15	12.011
262	CB	17	TCq1	C4	1	-0.179	12.011
263	CB	17	TCq1	C5	1	-0.15	12.011
264	CB	17	TCq1	C6	1	0.0862	12.011
265	CB	17	TCq1	C7	1	-0.15	12.011
266	C=O	17	TCq1	C8	1	0.5438	12.011
267	O=C	17	TCq1	O4	1	-0.57	15.9994
268	CO2M	17	TCq1	C9	1	0.979	12.011
269	O2CM	17	TCq1	O5	1	-0.9	15.9994
270	O2CM	17	TCq1	O6	1	-0.9	15.9994
271	HOCO	17	TCq1	H1	1	0.5	1.0079
272	HCMM	17	TCq1	H2	1	0.15	1.0079
273	HCMM	17	TCq1	H3	1	0.15	1.0079
274	HCMM	17	TCq1	H4	1	0.15	1.0079
275	CB	18	MPD2	C	1	-0.15	12.011
276	CB	18	MPD2	C1	1	0.117	12.011
277	CB	18	MPD2	C2	1	-0.15	12.011
278	CB	18	MPD2	C3	1	0.117	12.011
279	CB	18	MPD2	C4	1	-0.15	12.011
280	CB	18	MPD2	C5	1	-0.15	12.011
281	HCMM	18	MPD2	H	1	0.15	1.0079
282	HCMM	18	MPD2	H1	1	0.15	1.0079
283	HCMM	18	MPD2	H2	1	0.15	1.0079
284	HCMM	18	MPD2	H3	1	0.15	1.0079
285	NC=O	18	MPD2	N	1	-0.547	14.0067
286	HNCO	18	MPD2	H5	1	0.37	1.0079
287	NC=O	18	MPD2	N1	1	-0.547	14.0067
288	HNCO	18	MPD2	H7	1	0.37	1.0079
289	CB	19	TMC2	C1	1	0.0862	12.011
290	CB	19	TMC2	C2	1	-0.15	12.011
291	CB	19	TMC2	C3	1	0.0862	12.011
292	CB	19	TMC2	C4	1	-0.15	12.011
293	CB	19	TMC2	C5	1	0.0862	12.011
294	CB	19	TMC2	C6	1	-0.15	12.011
295	C=O	19	TMC2	C	1	0.5438	12.011
296	O=C	19	TMC2	O	1	-0.57	15.9994
297	HCMM	19	TMC2	H	1	0.15	1.0079
298	HCMM	19	TMC2	H1	1	0.15	1.0079
299	HCMM	19	TMC2	H2	1	0.15	1.0079
300	C=O	19	TMC2	C7	1	0.5438	12.011
301	C=O	19	TMC2	C8	1	0.6338	12.011
302	O=C	19	TMC2	O1	1	-0.57	15.9994
303	O=C	19	TMC2	O2	1	-0.57	15.9994
304	OR	19	TMC2	O5	1	-0.65	15.9994
305	HOCO	19	TMC2	H5	1	0.5	1.0079
306	CB	20	MPD2	C	1	-0.15	12.011
307	CB	20	MPD2	C1	1	0.117	12.011
308	CB	20	MPD2	C2	1	-0.15	12.011
309	CB	20	MPD2	C3	1	0.117	12.011
310	CB	20	MPD2	C4	1	-0.15	12.011
311	CB	20	MPD2	C5	1	-0.15	12.011
312	HCMM	20	MPD2	H	1	0.15	1.0079
313	HCMM	20	MPD2	H1	1	0.15	1.0079
314	HCMM	20	MPD2	H2	1	0.15	1.0079
315	HCMM	20	MPD2	H3	1	0.15	1.0079
316	NC=O	20	MPD2	N	1	-0.547	14.0067
317	HNCO	20	MPD2	H5	1	0.37	1.0079
318	NC=O	20	MPD2	N1	1	-0.547	14.0067
319	HNCO	20	MPD2	H7	1	0.37	1.0079
320	CB	21	TMC2	C1	1	0.0862	12.011
321	CB	21	TMC2	C2	1	-0.15	12.011
322	CB	21	TMC2	C3	1	0.0862	12.011
323	CB	21	TMC2	C4	1	-0.15	12.011
324	CB	21	TMC2	C5	1	0.0862	12.011
325	CB	21	TMC2	C6	1	-0.15	12.011
326	C=O	21	TMC2	C	1	0.5438	12.011
327	O=C	21	TMC2	O	1	-0.57	15.9994
328	HCMM	21	TMC2	H	1	0.15	1.0079
329	HCMM	21	TMC2	H1	1	0.15	1.0079
330	HCMM	21	TMC2	H2	1	0.15	1.0079
331	C=O	21	TMC2	C7	1	0.5438	12.011
332	C=O	21	TMC2	C8	1	0.6338	12.011
333	O=C	21	TMC2	O1	1	-0.57	15.9994
334	O=C	21	TMC2	O2	1	-0.57	15.9994
335	OR	21	TMC2	O5	1	-0.65	15.9994
336	HOCO	21	TMC2	H5	1	0.5	1.0079
337	CB	22	MPD2	C	1	-0.15	12.011
338	CB	22	MPD2	C1	1	0.117	12.011
339	CB	22	MPD2	C2	1	-0.15	12.011
340	CB	22	MPD2	C3	1	0.117	12.011
341	CB	22	MPD2	C4	1	-0.15	12.011
342	CB	22	MPD2	C5	1	-0.15	12.011
343	HCMM	22	MPD2	H	1	0.15	1.0079
344	HCMM	22	MPD2	H1	1	0.15	1.0079
345	HCMM	22	MPD2	H2	1	0.15	1.0079
346	HCMM	22	MPD2	H3	1	0.15	1.0079
347	NC=O	22	MPD2	N	1	-0.547	14.0067
348	HNCO	22	MPD2	H5	1	0.37	1.0079
349	NC=O	22	MPD2	N1	1	-0.547	14.0067
350	HNCO	22	MPD2	H7	1	0.37	1.0079
351	CB	23	TMC2	C1	1	0.0862	12.011
352	CB	23	TMC2	C2	1	-0.15	12.011
353	CB	23	TMC2	C3	1	0.0862	12.011
354	CB	23	TMC2	C4	1	-0.15	12.011
355	CB	23	TMC2	C5	1	0.0862	12.011
356	CB	23	TMC2	C6	1	-0.15	12.011
357	C=O	23	TMC2	C	1	0.5438	12.011
358	O=C	23	TMC2	O	1	-0.57	15.9994
359	HCMM	23	TMC2	H	1	0.15	1.0079
360	HCMM	23	TMC2	H1	1	0.15	1.0079
361	HCMM	23	TMC2	H2	1	0.15	1.0079
362	C=O	23	TMC2	C7	1	0.5438	12.011
363	C=O	23	TMC2	C8	1	0.6338	12.011
364	O=C	23	TMC2	O1	1	-0.57	15.9994
365	O=C	23	TMC2	O2	1	-0.57	15.9994
366	OR	23	TMC2	O5	1	-0.65	15.9994
367	HOCO	23	TMC2	H5	1	0.5	1.0079
368	CB	24	MPD2	C	1	-0.15	12.011
369	CB	24	MPD2	C1	1	0.117	12.011
370	CB	24	MPD2	C2	1	-0.15	12.011
371	CB	24	MPD2	C3	1	0.117	12.011
372	CB	24	MPD2	C4	1	-0.15	12.011
373	CB	24	MPD2	C5	1	-0.15	12.011
374	HCMM	24	MPD2	H	1	0.15	1.0079
375	HCMM	24	MPD2	H1	1	0.15	1.0079
376	HCMM	24	MPD2	H2	1	0.15	1.0079
377	HCMM	24	MPD2	H3	1	0.15	1.0079
378	NC=O	24	MPD2	N	1	-0.547	14.0067
379	HNCO	24	MPD2	H5	1	0.37	1.0079
380	NC=O	24	MPD2	N1	1	-0.547	14.0067
381	HNCO	24	MPD2	H7	1	0.37	1.0079
382	CB	25	TMC2	C1	1	0.0862	12.011
383	CB	25	TMC2	C2	1	-0.15	12.011
384	CB	25	TMC2	C3	1	0.0862	12.011
385	CB	25	TMC2	C4	1	-0.15	12.011
386	CB	25	TMC2	C5	1	0.0862	12.011
387	CB	25	TMC2	C6	1	-0.15	12.011
388	C=O	25	TMC2	C	1	0.5438	12.011
389	O=C	25	TMC2	O	1	-0.57	15.9994
390	HCMM	25	TMC2	H	1	0.15	1.0079
391	HCMM	25	TMC2	H1	1	0.15	1.0079
392	HCMM	25	TMC2	H2	1	0.15	1.0079
393	C=O	25	TMC2	C7	1	0.5438	12.011
394	C=O	25	TMC2	C8	1	0.6338	12.011
395	O=C	25	TMC2	O1	1	-0.57	15.9994
396	O=C	25	TMC2	O2	1	-0.57	15.9994
397	OR	25	TMC2	O5	1	-0.65	15.9994
398	HOCO	25	TMC2	H5	1	0.5	1.0079
399	CB	26	MPD2	C	1	-0.15	12.011
400	CB	26	MPD2	C1	1	0.117	12.011
401	CB	26	MPD2	C2	1	-0.15	12.011
402	CB	26	MPD2	C3	1	0.117	12.011
403	CB	26	MPD2	C4	1	-0.15	12.011
404	CB	26	MPD2	C5	1	-0.15	12.011
405	HCMM	26	MPD2	H	1	0.15	1.0079
406	HCMM	26	MPD2	H1	1	0.15	1.0079
407	HCMM	26	MPD2	H2	1	0.15	1.0079
408	HCMM	26	MPD2	H3	1	0.15	1.0079
409	NC=O	26	MPD2	N	1	-0.547	14.0067
410	HNCO	26	MPD2	H5	1	0.37	1.0079
411	NC=O	26	MPD2	N1	1	-0.547	14.0067
412	HNCO	26	MPD2	H7	1	0.37	1.0079
413	CB	27	TMC2	C1	1	0.0862	12.011
414	CB	27	TMC2	C2	1	-0.15	12.011
415	CB	27	TMC2	C3	1	0.0862	12.011
416	CB	27	TMC2	C4	1	-0.15	12.011
417	CB	27	TMC2	C5	1	0.0862	12.011
418	CB	27	TMC2	C6	1	-0.15	12.011
419	C=O	27	TMC2	C	1	0.5438	12.011
420	O=C	27	TMC2	O	1	-0.57	15.9994
421	HCMM	27	TMC2	H	1	0.15	1.0079
422	HCMM	27	TMC2	H1	1	0.15	1.0079
423	HCMM	27	TMC2	H2	1	0.15	1.0079
424	C=O	27	TMC2	C7	1	0.5438	12.011
425	C=O	27	TMC2	C8	1	0.6338	12.011
426	O=C	27	TMC2	O1	1	-0.57	15.9994
427	O=C	27	TMC2	O2	1	-0.57	15.9994
428	OR	27	TMC2	O5	1	-0.65	15.9994
429	HOCO	27	TMC2	H5	1	0.5	1.0079
430	CB	28	MPD2	C	1	-0.15	12.011
431	CB	28	MPD2	C1	1	0.117	12.011
432	CB	28	MPD2	C2	1	-0.15	12.011
433	CB	28	MPD2	C3	1	0.117	12.011
434	CB	28	MPD2	C4	1	-0.15	12.011
435	CB	28	MPD2	C5	1	-0.15	12.011
436	HCMM	28	MPD2	H	1	0.15	1.0079
437	HCMM	28	MPD2	H1	1	0.15	1.0079
438	HCMM	28	MPD2	H2	1	0.15	1.0079
439	HCMM	28	MPD2	H3	1	0.15	1.0079
440	NC=O	28	MPD2	N	1	-0.547	14.0067
441	HNCO	28	MPD2	H5	1	0.37	1.0079
442	NC=O	28	MPD2	N1	1	-0.547	14.0067
443	HNCO	28	MPD2	H7	1	0.37	1.0079
444	CB	29	TMC2	C1	1	0.0862	12.011
445	CB	29	TMC2	C2	1	-0.15	12.011
446	CB	29	TMC2	C3	1	0.0862	12.011
447	CB	29	TMC2	C4	1	-0.15	12.011
448	CB	29	TMC2	C5	1	0.0862	12.011
449	CB	29	TMC2	C6	1	-0.15	12.011
450	C=O	29	TMC2	C	1	0.5438	12.011
451	O=C	29	TMC2	O	1	-0.57	15.9994
452	HCMM	29	TMC2	H	1	0.15	1.0079
453	HCMM	29	TMC2	H1	1	0.15	1.0079
454	HCMM	29	TMC2	H2	1	0.15	1.0079
455	C=O	29	TMC2	C7	1	0.5438	12.011
456	C=O	29	TMC2	C8	1	0.6338	12.011
457	O=C	29	TMC2	O1	1	-0.57	15.9994
458	O=C	29	TMC2	O2	1	-0.57	15.9994
459	OR	29	TMC2	O5	1	-0.65	15.9994
460	HOCO	29	TMC2	H5	1	0.5	1.0079
461	CB	30	MPD2	C	1	-0.15	12.011
462	CB	30	MPD2	C1	1	0.117	12.011
463	CB	30	MPD2	C2	1	-0.15	12.011
464	CB	30	MPD2	C3	1	0.117	12.011
465	CB	30	MPD2	C4	1	-0.15	12.011
466	CB	30	MPD2	C5	1	-0.15	12.011
467	HCMM	30	MPD2	H	1	0.15	1.0079
468	HCMM	30	MPD2	H1	1	0.15	1.0079
469	HCMM	30	MPD2	H2	1	0.15	1.0079
470	HCMM	30	MPD2	H3	1	0.15	1.0079
471	NC=O	30	MPD2	N	1	-0.547	14.0067
472	HNCO	30	MPD2	H5	1	0.37	1.0079
473	NC=O	30	MPD2	N1	1	-0.547	14.0067
474	HNCO	30	MPD2	H7	1	0.37	1.0079
475	CB	31	TMC2	C1	1	0.0862	12.011
476	CB	31	TMC2	C2	1	-0.15	12.011
477	CB	31	TMC2	C3	1	0.0862	12.011
478	CB	31	TMC2	C4	1	-0.15	12.011
479	CB	31	TMC2	C5	1	0.0862	12.011
480	CB	31	TMC2	C6	1	-0.15	12.011
481	C=O	31	TMC2	C	1	0.5438	12.011
482	O=C	31	TMC2	O	1	-0.57	15.9994
483	HCMM	31	TMC2	H	1	0.15	1.0079
484	HCMM	31	TMC2	H1	1	0.15	1.0079
485	HCMM	31	TMC2	H2	1	0.15	1.0079
486	C=O	31	TMC2	C7	1	0.5438	12.011
487	C=O	31	TMC2	C8	1	0.6338	12.011
488	O=C	31	TMC2	O1	1	-0.57	15.9994
489	O=C	31	TMC2	O2	1	-0.57	15.9994
490	OR	31	TMC2	O5	1	-0.65	15.9994
491	HOCO	31	TMC2	H5	1	0.5	1.0079
492	CB	32	MPD2	C	1	-0.15	12.011
493	CB	32	MPD2	C1	1	0.117	12.011
494	CB	32	MPD2	C2	1	-0.15	12.011
495	CB	32	MPD2	C3	1	0.117	12.011
496	CB	32	MPD2	C4	1	-0.15	12.011
497	CB	32	MPD2	C5	1	-0.15	12.011
498	HCMM	32	MPD2	H	1	0.15	1.0079
499	HCMM	32	MPD2	H1	1	0.15	1.0079
500	HCMM	32	MPD2	H2	1	0.15	1.0079
501	HCMM	32	MPD2	H3	1	0.15	1.0079
502	NC=O	32	MPD2	N	1	-0.547	14.0067
503	HNCO	32	MPD2	H5	1	0.37	1.0079
504	NC=O	32	MPD2	N1	1	-0.547	14.0067
505	HNCO	32	MPD2	H7	1	0.37	1.0079
506	CB	33	MPD2	C	1	-0.15	12.011
507	CB	33	MPD2	C1	1	0.117	12.011
508	CB	33	MPD2	C2	1	-0.15	12.011
509	CB	33	MPD2	C3	1	0.117	12.011
510	CB	33	MPD2	C4	1	-0.15	12.011
511	CB	33	MPD2	C5	1	-0.15	12.011
512	HCMM	33	MPD2	H	1	0.15	1.0079
513	HCMM	33	MPD2	H1	1	0.15	1.0079
514	HCMM	33	MPD2	H2	1	0.15	1.0079
515	HCMM	33	MPD2	H3	1	0.15	1.0079
516	NC=O	33	MPD2	N	1	-0.547	14.0067
517	HNCO	33	MPD2	H5	1	0.37	1.0079
518	NC=O	33	MPD2	N1	1	-0.547	14.0067
519	HNCO	33	MPD2	H7	1	0.37	1.0079
520	C=O	34	TCq2	C1	1	0.5438	12.011
521	O=C	34	TCq2	O2	1	-0.57	15.9994
522	CB	34	TCq2	C2	1	0.0862	12.011
523	CB	34	TCq2	C3	1	-0.15	12.011
524	CB	34	TCq2	C4	1	-0.179	12.011
525	CB	34	TCq2	C5	1	-0.15	12.011
526	CB	34	TCq2	C6	1	0.0862	12.011
527	CB	34	TCq2	C7	1	-0.15	12.011
528	C=O	34	TCq2	C8	1	0.5438	12.011
529	O=C	34	TCq2	O4	1	-0.57	15.9994
530	CO2M	34	TCq2	C9	1	0.979	12.011
531	O2CM	34	TCq2	O5	1	-0.9	15.9994
532	O2CM	34	TCq2	O6	1	-0.9	15.9994
533	HCMM	34	TCq2	H2	1	0.15	1.0079
534	HCMM	34	TCq2	H3	1	0.15	1.0079
535	HCMM	34	TCq2	H4	1	0.15	1.0079
536	CB	35	TMC2	C1	1	0.0862	12.011
537	CB	35	TMC2	C2	1	-0.15	12.011
538	CB	35	TMC2	C3	1	0.0862	12.011
539	CB	35	TMC2	C4	1	-0.15	12.011
540	CB	35	TMC2	C5	1	0.0862	12.011
541	CB	35	TMC2	C6	1	-0.15	12.011
542	C=O	35	TMC2	C	1	0.5438	12.011
543	O=C	35	TMC2	O	1	-0.57	15.9994
544	HCMM	35	TMC2	H	1	0.15	1.0079
545	HCMM	35	TMC2	H1	1	0.15	1.0079
546	HCMM	35	TMC2	H2	1	0.15	1.0079
547	C=O	35	TMC2	C7	1	0.5438	12.011
548	C=O	35	TMC2	C8	1	0.6338	12.011
549	O=C	35	TMC2	O1	1	-0.57	15.9994
550	O=C	35	TMC2	O2	1	-0.57	15.9994
551	OR	35	TMC2	O5	1	-0.65	15.9994
552	HOCO	35	TMC2	H5	1	0.5	1.0079
553	CB	36	MPD2	C	1	-0.15	12.011
554	CB	36	MPD2	C1	1	0.117	12.011
555	CB	36	MPD2	C2	1	-0.15	12.011
556	CB	36	MPD2	C3	1	0.117	12.011
557	CB	36	MPD2	C4	1	-0.15	12.011
558	CB	36	MPD2	C5	1	-0.15	12.011
559	HCMM	36	MPD2	H	1	0.15	1.0079
560	HCMM	36	MPD2	H1	1	0.15	1.0079
561	HCMM	36	MPD2	H2	1	0.15	1.0079
562	HCMM	36	MPD2	H3	1	0.15	1.0079
563	NC=O	36	MPD2	N	1	-0.547	14.0067
564	HNCO	36	MPD2	H5	1	0.37	1.0079
565	NC=O	36	MPD2	N1	1	-0.547	14.0067
566	HNCO	36	MPD2	H7	1	0.37	1.0079
567	CB	37	TMC2	C1	1	0.0862	12.011
568	CB	37	TMC2	C2	1	-0.15	12.011
569	CB	37	TMC2	C3	1	0.0862	12.011
570	CB	37	TMC2	C4	1	-0.15	12.011
571	CB	37	TMC2	C5	1	0.0862	12.011
572	CB	37	TMC2	C6	1	-0.15	12.011
573	C=O	37	TMC2	C	1	0.5438	12.011
574	O=C	37	TMC2	O	1	-0.57	15.9994
575	HCMM	37	TMC2	H	1	0.15	1.0079
576	HCMM	37	TMC2	H1	1	0.15	1.0079
577	HCMM	37	TMC2	H2	1	0.15	1.0079
578	C=O	37	TMC2	C7	1	0.5438	12.011
579	C=O	37	TMC2	C8	1	0.6338	12.011
580	O=C	37	TMC2	O1	1	-0.57	15.9994
581	O=C	37	TMC2	O2	1	-0.57	15.9994
582	OR	37	TMC2	O5	1	-0.65	15.9994
583	HOCO	37	TMC2	H5	1	0.5	1.0079
584	CB	38	MPD2	C	1	-0.15	12.011
585	CB	38	MPD2	C1	1	0.117	12.011
586	CB	38	MPD2	C2	1	-0.15	12.011
587	CB	38	MPD2	C3	1	0.117	12.011
588	CB	38	MPD2	C4	1	-0.15	12.011
589	CB	38	MPD2	C5	1	-0.15	12.011
590	HCMM	38	MPD2	H	1	0.15	1.0079
591	HCMM	38	MPD2	H1	1	0.15	1.0079
592	HCMM	38	MPD2	H2	1	0.15	1.0079
593	HCMM	38	MPD2	H3	1	0.15	1.0079
594	NC=O	38	MPD2	N	1	-0.547	14.0067
595	HNCO	38	MPD2	H5	1	0.37	1.0079
596	NC=O	38	MPD2	N1	1	-0.547	14.0067
597	HNCO	38	MPD2	H7	1	0.37	1.0079
598	CB	39	TMC2	C1	1	0.0862	12.011
599	CB	39	TMC2	C2	1	-0.15	12.011
600	CB	39	TMC2	C3	1	0.0862	12.011
601	CB	39	TMC2	C4	1	-0.15	12.011
602	CB	39	TMC2	C5	1	0.0862	12.011
603	CB	39	TMC2	C6	1	-0.15	12.011
604	C=O	39	TMC2	C	1	0.5438	12.011
605	O=C	39	TMC2	O	1	-0.57	15.9994
606	HCMM	39	TMC2	H	1	0.15	1.0079
607	HCMM	39	TMC2	H1	1	0.15	1.0079
608	HCMM	39	TMC2	H2	1	0.15	1.0079
609	C=O	39	TMC2	C7	1	0.5438	12.011
610	C=O	39	TMC2	C8	1	0.6338	12.011
611	O=C	39	TMC2	O1	1	-0.57	15.9994
612	O=C	39	TMC2	O2	1	-0.57	15.9994
613	OR	39	TMC2	O5	1	-0.65	15.9994
614	HOCO	39	TMC2	H5	1	0.5	1.0079
615	CB	40	MPD2	C	1	-0.15	12.011
616	CB	40	MPD2	C1	1	0.117	12.011
617	CB	40	MPD2	C2	1	-0.15	12.011
618	CB	40	MPD2	C3	1	0.117	12.011
619	CB	40	MPD2	C4	1	-0.15	12.011
620	CB	40	MPD2	C5	1	-0.15	12.011
621	HCMM	40	MPD2	H	1	0.15	1.0079
622	HCMM	40	MPD2	H1	1	0.15	1.0079
623	HCMM	40	MPD2	H2	1	0.15	1.0079
624	HCMM	40	MPD2	H3	1	0.15	1.0079
625	NC=O	40	MPD2	N	1	-0.547	14.0067
626	HNCO	40	MPD2	H5	1	0.37	1.0079
627	NC=O	40	MPD2	N1	1	-0.547	14.0067
628	HNCO	40	MPD2	H7	1	0.37	1.0079
629	CB	41	TMC2	C1	1	0.0862	12.011
630	CB	41	TMC2	C2	1	-0.15	12.011
631	CB	41	TMC2	C3	1	0.0862	12.011
632	CB	41	TMC2	C4	1	-0.15	12.011
633	CB	41	TMC2	C5	1	0.0862	12.011
634	CB	41	TMC2	C6	1	-0.15	12.011
635	C=O	41	TMC2	C	1	0.5438	12.011
636	O=C	41	TMC2	O	1	-0.57	15.9994
637	HCMM	41	TMC2	H	1	0.15	1.0079
638	HCMM	41	TMC2	H1	1	0.15	1.0079
639	HCMM	41	TMC2	H2	1	0.15	1.0079
640	C=O	41	TMC2	C7	1	0.5438	12.011
641	C=O	41	TMC2	C8	1	0.6338	12.011
642	O=C	41	TMC2	O1	1	-0.57	15.9994
643	O=C	41	TMC2	O2	1	-0.57	15.9994
644	OR	41	TMC2	O5	1	-0.65	15.9994
645	HOCO	41	TMC2	H5	1	0.5	1.0079
646	CB	42	MPD2	C	1	-0.15	12.011
647	CB	42	MPD2	C1	1	0.117	12.011
648	CB	42	MPD2	C2	1	-0.15	12.011
649	CB	42	MPD2	C3	1	0.117	12.011
650	CB	42	MPD2	C4	1	-0.15	12.011
651	CB	42	MPD2	C5	1	-0.15	12.011
652	HCMM	42	MPD2	H	1	0.15	1.0079
653	HCMM	42	MPD2	H1	1	0.15	1.0079
654	HCMM	42	MPD2	H2	1	0.15	1.0079
655	HCMM	42	MPD2	H3	1	0.15	1.0079
656	NC=O	42	MPD2	N	1	-0.547	14.0067
657	HNCO	42	MPD2	H5	1	0.37	1.0079
658	NC=O	42	MPD2	N1	1	-0.547	14.0067
659	HNCO	42	MPD2	H7	1	0.37	1.0079
660	CB	43	TMC2	C1	1	0.0862	12.011
661	CB	43	TMC2	C2	1	-0.15	12.011
662	CB	43	TMC2	C3	1	0.0862	12.011
663	CB	43	TMC2	C4	1	-0.15	12.011
664	CB	43	TMC2	C5	1	0.0862	12.011
665	CB	43	TMC2	C6	1	-0.15	12.011
666	C=O	43	TMC2	C	1	0.5438	12.011
667	O=C	43	TMC2	O	1	-0.57	15.9994
668	HCMM	43	TMC2	H	1	0.15	1.0079
669	HCMM	43	TMC2	H1	1	0.15	1.0079
670	HCMM	43	TMC2	H2	1	0.15	1.0079
671	C=O	43	TMC2	C7	1	0.5438	12.011
672	C=O	43	TMC2	C8	1	0.6338	12.011
673	O=C	43	TMC2	O1	1	-0.57	15.9994
674	O=C	43	TMC2	O2	1	-0.57	15.9994
675	OR	43	TMC2	O5	1	-0.65	15.9994
676	HOCO	43	TMC2	H5	1	0.5	1.0079
677	CB	44	MPD2	C	1	-0.15	12.011
678	CB	44	MPD2	C1	1	0.117	12.011
679	CB	44	MPD2	C2	1	-0.15	12.011
680	CB	44	MPD2	C3	1	0.117	12.011
681	CB	44	MPD2	C4	1	-0.15	12.011
682	CB	44	MPD2	C5	1	-0.15	12.011
683	HCMM	44	MPD2	H	1	0.15	1.0079
684	HCMM	44	MPD2	H1	1	0.15	1.0079
685	HCMM	44	MPD2	H2	1	0.15	1.0079
686	HCMM	44	MPD2	H3	1	0.15	1.0079
687	NC=O	44	MPD2	N	1	-0.547	14.0067
688	HNCO	44	MPD2	H5	1	0.37	1.0079
689	NC=O	44	MPD2	N1	1	-0.547	14.0067
690	HNCO	44	MPD2	H7	1	0.37	1.0079
691	CB	45	TMC2	C1	1	0.0862	12.011
692	CB	45	TMC2	C2	1	-0.15	12.011
693	CB	45	TMC2	C3	1	0.0862	12.011
694	CB	45	TMC2	C4	1	-0.15	12.011
695	CB	45	TMC2	C5	1	0.0862	12.011
696	CB	45	TMC2	C6	1	-0.15	12.011
697	C=O	45	TMC2	C	1	0.5438	12.011
698	O=C	45	TMC2	O	1	-0.57	15.9994
699	HCMM	45	TMC2	H	1	0.15	1.0079
700	HCMM	45	TMC2	H1	1	0.15	1.0079
701	HCMM	45	TMC2	H2	1	0.15	1.0079
702	C=O	45	TMC2	C7	1	0.5438	12.011
703	C=O	45	TMC2	C8	1	0.6338	12.011
704	O=C	45	TMC2	O1	1	-0.57	15.9994
705	O=C	45	TMC2	O2	1	-0.57	15.9994
706	OR	45	TMC2	O5	1	-0.65	15.9994
707	HOCO	45	TMC2	H5	1	0.5	1.0079
708	CB	46	MPD2	C	1	-0.15	12.011
709	CB	46	MPD2	C1	1	0.117	12.011
710	CB	46	MPD2	C2	1	-0.15	12.011
711	CB	46	MPD2	C3	1	0.117	12.011
712	CB	46	MPD2	C4	1	-0.15	12.011
713	CB	46	MPD2	C5	1	-0.15	12.011
714	HCMM	46	MPD2	H	1	0.15	1.0079
715	HCMM	46	MPD2	H1	1	0.15	1.0079
716	HCMM	46	MPD2	H2	1	0.15	1.0079
717	HCMM	46	MPD2	H3	1	0.15	1.0079
718	NC=O	46	MPD2	N	1	-0.547	14.0067
719	HNCO	46	MPD2	H5	1	0.37	1.0079
720	NC=O	46	MPD2	N1	1	-0.547	14.0067
721	HNCO	46	MPD2	H7	1	0.37	1.0079
722	CB	47	TMC2	C1	1	0.0862	12.011
723	CB	47	TMC2	C2	1	-0.15	12.011
724	CB	47	TMC2	C3	1	0.0862	12.011
725	CB	47	TMC2	C4	1	-0.15	12.011
726	CB	47	TMC2	C5	1	0.0862	12.011
727	CB	47	TMC2	C6	1	-0.15	12.011
728	C=O	47	TMC2	C	1	0.5438	12.011
729	O=C	47	TMC2	O	1	-0.57	15.9994
730	HCMM	47	TMC2	H	1	0.15	1.0079
731	HCMM	47	TMC2	H1	1	0.15	1.0079
732	HCMM	47	TMC2	H2	1	0.15	1.0079
733	C=O	47	TMC2	C7	1	0.5438	12.011
734	C=O	47	TMC2	C8	1	0.6338	12.011
735	O=C	47	TMC2	O1	1	-0.57	15.9994
736	O=C	47	TMC2	O2	1	-0.57	15.9994
737	OR	47	TMC2	O5	1	-0.65	15.9994
738	HOCO	47	TMC2	H5	1	0.5	1.0079
739	CB	48	MPD2	C	1	-0.15	12.011
740	CB	48	MPD2	C1	1	0.117	12.011
741	CB	48	MPD2	C2	1	-0.15	12.011
742	CB	48	MPD2	C3	1	0.117	12.011
743	CB	48	MPD2	C4	1	-0.15	12.011
744	CB	48	MPD2	C5	1	-0.15	12.011
745	HCMM	48	MPD2	H	1	0.15	1.0079
746	HCMM	48	MPD2	H1	1	0.15	1.0079
747	HCMM	48	MPD2	H2	1	0.15	1.0079
748	HCMM	48	MPD2	H3	1	0.15	1.0079
749	NC=O	48	MPD2	N	1	-0.547	14.0067
750	HNCO	48	MPD2	H5	1	0.37	1.0079
751	NC=O	48	MPD2	N1	1	-0.547	14.0067
752	HNCO	48	MPD2	H7	1	0.37	1.0079
753	CB	49	TMC2	C1	1	0.0862	12.011
754	CB	49	TMC2	C2	1	-0.15	12.011
755	CB	49	TMC2	C3	1	0.0862	12.011
756	CB	49	TMC2	C4	1	-0.15	12.011
757	CB	49	TMC2	C5	1	0.0862	12.011
758	CB	49	TMC2	C6	1	-0.15	12.011
759	C=O	49	TMC2	C	1	0.5438	12.011
760	O=C	49	TMC2	O	1	-0.57	15.9994
761	HCMM	49	TMC2	H	1	0.15	1.0079
762	HCMM	49	TMC2	H1	1	0.15	1.0079
763	HCMM	49	TMC2	H2	1	0.15	1.0079
764	C=O	49	TMC2	C7	1	0.5438	12.011
765	C=O	49	TMC2	C8	1	0.6338	12.011
766	O=C	49	TMC2	O1	1	-0.57	15.9994
767	O=C	49	TMC2	O2	1	-0.57	15.9994
768	OR	49	TMC2	O5	1	-0.65	15.9994
769	HOCO	49	TMC2	H5	1	0.5	1.0079
770	CB	50	MPD2	C	1	-0.15	12.011
771	CB	50	MPD2	C1	1	0.117	12.011
772	CB	50	MPD2	C2	1	-0.15	12.011
773	CB	50	MPD2	C3	1	0.117	12.011
774	CB	50	MPD2	C4	1	-0.15	12.011
775	CB	50	MPD2	C5	1	-0.15	12.011
776	HCMM	50	MPD2	H	1	0.15	1.0079
777	HCMM	50	MPD2	H1	1	0.15	1.0079
778	HCMM	50	MPD2	H2	1	0.15	1.0079
779	HCMM	50	MPD2	H3	1	0.15	1.0079
780	NC=O	50	MPD2	N	1	-0.547	14.0067
781	HNCO	50	MPD2	H5	1	0.37	1.0079
782	NC=O	50	MPD2	N1	1	-0.547	14.0067
783	HNCO	50	MPD2	H7	1	0.37	1.0079
784	CB	51	TMC2	C1	1	0.0862	12.011
785	CB	51	TMC2	C2	1	-0.15	12.011
786	CB	51	TMC2	C3	1	0.0862	12.011
787	CB	51	TMC2	C4	1	-0.15	12.011
788	CB	51	TMC2	C5	1	0.0862	12.011
789	CB	51	TMC2	C6	1	-0.15	12.011
790	C=O	51	TMC2	C	1	0.5438	12.011
791	O=C	51	TMC2	O	1	-0.57	15.9994
792	HCMM	51	TMC2	H	1	0.15	1.0079
793	HCMM	51	TMC2	H1	1	0.15	1.0079
794	HCMM	51	TMC2	H2	1	0.15	1.0079
795	C=O	51	TMC2	C7	1	0.5438	12.011
796	C=O	51	TMC2	C8	1	0.6338	12.011
797	O=C	51	TMC2	O1	1	-0.57	15.9994
798	O=C	51	TMC2	O2	1	-0.57	15.9994
799	OR	51	TMC2	O5	1	-0.65	15.9994
800	HOCO	51	TMC2	H5	1	0.5	1.0079
801	CB	52	MPD2	C	1	-0.15	12.011
802	CB	52	MPD2	C1	1	0.117	12.011
803	CB	52	MPD2	C2	1	-0.15	12.011
804	CB	52	MPD2	C3	1	0.117	12.011
805	CB	52	MPD2	C4	1	-0.15	12.011
806	CB	52	MPD2	C5	1	-0.15	12.011
807	HCMM	52	MPD2	H	1	0.15	1.0079
808	HCMM	52	MPD2	H1	1	0.15	1.0079
809	HCMM	52	MPD2	H2	1	0.15	1.0079
810	HCMM	52	MPD2	H3	1	0.15	1.0079
811	NC=O	52	MPD2	N	1	-0.547	14.0067
812	HNCO	52	MPD2	H5	1	0.37	1.0079
813	NC=O	52	MPD2	N1	1	-0.547	14.0067
814	HNCO	52	MPD2	H7	1	0.37	1.0079
815	CB	53	TMC2	C1	1	0.0862	12.011
816	CB	53	TMC2	C2	1	-0.15	12.011
817	CB	53	TMC2	C3	1	0.0862	12.011
818	CB	53	TMC2	C4	1	-0.15	12.011
819	CB	53	TMC2	C5	1	0.0862	12.011
820	CB	53	TMC2	C6	1	-0.15	12.011
821	C=O	53	TMC2	C	1	0.5438	12.011
822	O=C	53	TMC2	O	1	-0.57	15.9994
823	HCMM	53	TMC2	H	1	0.15	1.0079
824	HCMM	53	TMC2	H1	1	0.15	1.0079
825	HCMM	53	TMC2	H2	1	0.15	1.0079
826	C=O	53	TMC2	C7	1	0.5438	12.011
827	C=O	53	TMC2	C8	1	0.6338	12.011
828	O=C	53	TMC2	O1	1	-0.57	15.9994
829	O=C	53	TMC2	O2	1	-0.57	15.9994
830	OR	53	TMC2	O5	1	-0.65	15.9994
831	HOCO	53	TMC2	H5	1	0.5	1.0079
832	CB	54	MPD2	C	1	-0.15	12.011
833	CB	54	MPD2	C1	1	0.117	12.011
834	CB	54	MPD2	C2	1	-0.15	12.011
835	CB	54	MPD2	C3	1	0.117	12.011
836	CB	54	MPD2	C4	1	-0.15	12.011
837	CB	54	MPD2	C5	1	-0.15	12.011
838	HCMM	54	MPD2	H	1	0.15	1.0079
839	HCMM	54	MPD2	H1	1	0.15	1.0079
840	HCMM	54	MPD2	H2	1	0.15	1.0079
841	HCMM	54	MPD2	H3	1	0.15	1.0079
842	NC=O	54	MPD2	N	1	-0.547	14.0067
843	HNCO	54	MPD2	H5	1	0.37	1.0079
844	NC=O	54	MPD2	N1	1	-0.547	14.0067
845	HNCO	54	MPD2	H7	1	0.37	1.0079
846	CB	55	TMC2	C1	1	0.0862	12.011
847	CB	55	TMC2	C2	1	-0.15	12.011
848	CB	55	TMC2	C3	1	0.0862	12.011
849	CB	55	TMC2	C4	1	-0.15	12.011
850	CB	55	TMC2	C5	1	0.0862	12.011
851	CB	55	TMC2	C6	1	-0.15	12.011
852	C=O	55	TMC2	C	1	0.5438	12.011
853	O=C	55	TMC2	O	1	-0.57	15.9994
854	HCMM	55	TMC2	H	1	0.15	1.0079
855	HCMM	55	TMC2	H1	1	0.15	1.0079
856	HCMM	55	TMC2	H2	1	0.15	1.0079
857	C=O	55	TMC2	C7	1	0.5438	12.011
858	C=O	55	TMC2	C8	1	0.6338	12.011
859	O=C	55	TMC2	O1	1	-0.57	15.9994
860	O=C	55	TMC2	O2	1	-0.57	15.9994
861	OR	55	TMC2	O5	1	-0.65	15.9994
862	HOCO	55	TMC2	H5	1	0.5	1.0079
863	CB	56	MPD2	C	1	-0.15	12.011
864	CB	56	MPD2	C1	1	0.117	12.011
865	CB	56	MPD2	C2	1	-0.15	12.011
866	CB	56	MPD2	C3	1	0.117	12.011
867	CB	56	MPD2	C4	1	-0.15	12.011
868	CB	56	MPD2	C5	1	-0.15	12.011
869	HCMM	56	MPD2	H	1	0.15	1.0079
870	HCMM	56	MPD2	H1	1	0.15	1.0079
871	HCMM	56	MPD2	H2	1	0.15	1.0079
872	HCMM	56	MPD2	H3	1	0.15	1.0079
873	NC=O	56	MPD2	N	1	-0.547	14.0067
874	HNCO	56	MPD2	H5	1	0.37	1.0079
875	NC=O	56	MPD2	N1	1	-0.547	14.0067
876	HNCO	56	MPD2	H7	1	0.37	1.0079
877	CB	57	MPD2	C	1	-0.15	12.011
878	CB	57	MPD2	C1	1	0.117	12.011
879	CB	57	MPD2	C2	1	-0.15	12.011
880	CB	57	MPD2	C3	1	0.117	12.011
881	CB	57	MPD2	C4	1	-0.15	12.011
882	CB	57	MPD2	C5	1	-0.15	12.011
883	HCMM	57	MPD2	H	1	0.15	1.0079
884	HCMM	57	MPD2	H1	1	0.15	1.0079
885	HCMM	57	MPD2	H2	1	0.15	1.0079
886	HCMM	57	MPD2	H3	1	0.15	1.0079
887	NC=O	57	MPD2	N	1	-0.547	14.0067
888	HNCO	57	MPD2	H5	1	0.37	1.0079
889	NC=O	57	MPD2	N1	1	-0.547	14.0067
890	HNCO	57	MPD2	H7	1	0.37	1.0079
891	C=O	58	TCq2	C1	1	0.5438	12.011
892	O=C	58	TCq2	O2	1	-0.57	15.9994
893	CB	58	TCq2	C2	1	0.0862	12.011
894	CB	58	TCq2	C3	1	-0.15	12.011
895	CB	58	TCq2	C4	1	-0.179	12.011
896	CB	58	TCq2	C5	1	-0.15	12.011
897	CB	58	TCq2	C6	1	0.0862	12.011
898	CB	58	TCq2	C7	1	-0.15	12.011
899	C=O	58	TCq2	C8	1	0.5438	12.011
900	O=C	58	TCq2	O4	1	-0.57	15.9994
901	CO2M	58	TCq2	C9	1	0.979	12.011
902	O2CM	58	TCq2	O5	1	-0.9	15.9994
903	O2CM	58	TCq2	O6	1	-0.9	15.9994
904	HCMM	58	TCq2	H2	1	0.15	1.0079
905	HCMM	58	TCq2	H3	1	0.15	1.0079
906	HCMM	58	TCq2	H4	1	0.15	1.0079
907	CB	59	TMC2	C1	1	0.0862	12.011
908	CB	59	TMC2	C2	1	-0.15	12.011
909	CB	59	TMC2	C3	1	0.0862	12.011
910	CB	59	TMC2	C4	1	-0.15	12.011
911	CB	59	TMC2	C5	1	0.0862	12.011
912	CB	59	TMC2	C6	1	-0.15	12.011
913	C=O	59	TMC2	C	1	0.5438	12.011
914	O=C	59	TMC2	O	1	-0.57	15.9994
915	HCMM	59	TMC2	H	1	0.15	1.0079
916	HCMM	59	TMC2	H1	1	0.15	1.0079
917	HCMM	59	TMC2	H2	1	0.15	1.0079
918	C=O	59	TMC2	C7	1	0.5438	12.011
919	C=O	59	TMC2	C8	1	0.6338	12.011
920	O=C	59	TMC2	O1	1	-0.57	15.9994
921	O=C	59	TMC2	O2	1	-0.57	15.9994
922	OR	59	TMC2	O5	1	-0.65	15.9994
923	HOCO	59	TMC2	H5	1	0.5	1.0079
924	CB	60	MPD2	C	1	-0.15	12.011
925	CB	60	MPD2	C1	1	0.117	12.011
926	CB	60	MPD2	C2	1	-0.15	12.011
927	CB	60	MPD2	C3	1	0.117	12.011
928	CB	60	MPD2	C4	1	-0.15	12.011
929	CB	60	MPD2	C5	1	-0.15	12.011
930	HCMM	60	MPD2	H	1	0.15	1.0079
931	HCMM	60	MPD2	H1	1	0.15	1.0079
932	HCMM	60	MPD2	H2	1	0.15	1.0079
933	HCMM	60	MPD2	H3	1	0.15	1.0079
934	NC=O	60	MPD2	N	1	-0.547	14.0067
935	HNCO	60	MPD2	H5	1	0.37	1.0079
936	NC=O	60	MPD2	N1	1	-0.547	14.0067
937	HNCO	60	MPD2	H7	1	0.37	1.0079
938	CB	61	TMC2	C1	1	0.0862	12.011
939	CB	61	TMC2	C2	1	-0.15	12.011
940	CB	61	TMC2	C3	1	0.0862	12.011
941	CB	61	TMC2	C4	1	-0.15	12.011
942	CB	61	TMC2	C5	1	0.0862	12.011
943	CB	61	TMC2	C6	1	-0.15	12.011
944	C=O	61	TMC2	C	1	0.5438	12.011
945	O=C	61	TMC2	O	1	-0.57	15.9994
946	HCMM	61	TMC2	H	1	0.15	1.0079
947	HCMM	61	TMC2	H1	1	0.15	1.0079
948	HCMM	61	TMC2	H2	1	0.15	1.0079
949	C=O	61	TMC2	C7	1	0.5438	12.011
950	C=O	61	TMC2	C8	1	0.6338	12.011
951	O=C	61	TMC2	O1	1	-0.57	15.9994
952	O=C	61	TMC2	O2	1	-0.57	15.9994
953	OR	61	TMC2	O5	1	-0.65	15.9994
954	HOCO	61	TMC2	H5	1	0.5	1.0079
955	CB	62	MPD2	C	1	-0.15	12.011
956	CB	62	MPD2	C1	1	0.117	12.011
957	CB	62	MPD2	C2	1	-0.15	12.011
958	CB	62	MPD2	C3	1	0.117	12.011
959	CB	62	MPD2	C4	1	-0.15	12.011
960	CB	62	MPD2	C5	1	-0.15	12.011
961	HCMM	62	MPD2	H	1	0.15	1.0079
962	HCMM	62	MPD2	H1	1	0.15	1.0079
963	HCMM	62	MPD2	H2	1	0.15	1.0079
964	HCMM	62	MPD2	H3	1	0.15	1.0079
965	NC=O	62	MPD2	N	1	-0.547	14.0067
966	HNCO	62	MPD2	H5	1	0.37	1.0079
967	NC=O	62	MPD2	N1	1	-0.547	14.0067
968	HNCO	62	MPD2	H7	1	0.37	1.0079
969	CB	63	TMC2	C1	1	0.0862	12.011
970	CB	63	TMC2	C2	1	-0.15	12.011
971	CB	63	TMC2	C3	1	0.0862	12.011
972	CB	63	TMC2	C4	1	-0.15	12.011
973	CB	63	TMC2	C5	1	0.0862	12.011
974	CB	63	TMC2	C6	1	-0.15	12.011
975	C=O	63	TMC2	C	1	0.5438	12.011
976	O=C	63	TMC2	O	1	-0.57	15.9994
977	HCMM	63	TMC2	H	1	0.15	1.0079
978	HCMM	63	TMC2	H1	1	0.15	1.0079
979	HCMM	63	TMC2	H2	1	0.15	1.0079
980	C=O	63	TMC2	C7	1	0.5438	12.011
981	C=O	63	TMC2	C8	1	0.6338	12.011
982	O=C	63	TMC2	O1	1	-0.57	15.9994
983	O=C	63	TMC2	O2	1	-0.57	15.9994
984	OR	63	TMC2	O5	1	-0.65	15.9994
985	HOCO	63	TMC2	H5	1	0.5	1.0079
986	CB	64	MPD2	C	1	-0.15	12.011
987	CB	64	MPD2	C1	1	0.117	12.011
988	CB	64	MPD2	C2	1	-0.15	12.011
989	CB	64	MPD2	C3	1	0.117	12.011
990	CB	64	MPD2	C4	1	-0.15	12.011
991	CB	64	MPD2	C5	1	-0.15	12.011
992	HCMM	64	MPD2	H	1	0.15	1.0079
993	HCMM	64	MPD2	H1	1	0.15	1.0079
994	HCMM	64	MPD2	H2	1	0.15	1.0079
995	HCMM	64	MPD2	H3	1	0.15	1.0079
996	NC=O	64	MPD2	N	1	-0.547	14.0067
997	HNCO	64	MPD2	H5	1	0.37	1.0079
998	NC=O	64	MPD2	N1	1	-0.547	14.0067
999	HNCO	64	MPD2	H7	1	0.37	1.0079
1000	CB	65	TMC2	C1	1	0.0862	12.011
1001	CB	65	TMC2	C2	1	-0.15	12.011
1002	CB	65	TMC2	C3	1	0.0862	12.011
1003	CB	65	TMC2	C4	1	-0.15	12.011
1004	CB	65	TMC2	C5	1	0.0862	12.011
1005	CB	65	TMC2	C6	1	-0.15	12.011
1006	C=O	65	TMC2	C	1	0.5438	12.011
1007	O=C	65	TMC2	O	1	-0.57	15.9994
1008	HCMM	65	TMC2	H	1	0.15	1.0079
1009	HCMM	65	TMC2	H1	1	0.15	1.0079
1010	HCMM	65	TMC2	H2	1	0.15	1.0079
1011	C=O	65	TMC2	C7	1	0.5438	12.011
1012	C=O	65	TMC2	C8	1	0.6338	12.011
1013	O=C	65	TMC2	O1	1	-0.57	15.9994
1014	O=C	65	TMC2	O2	1	-0.57	15.9994
1015	OR	65	TMC2	O5	1	-0.65	15.9994
1016	HOCO	65	TMC2	H5	1	0.5	1.0079
1017	CB	66	MPD2	C	1	-0.15	12.011
1018	CB	66	MPD2	C1	1	0.117	12.011
1019	CB	66	MPD2	C2	1	-0.15	12.011
1020	CB	66	MPD2	C3	1	0.117	12.011
1021	CB	66	MPD2	C4	1	-0.15	12.011
1022	CB	66	MPD2	C5	1	-0.15	12.011
1023	HCMM	66	MPD2	H	1	0.15	1.0079
1024	HCMM	66	MPD2	H1	1	0.15	1.0079
1025	HCMM	66	MPD2	H2	1	0.15	1.0079
1026	HCMM	66	MPD2	H3	1	0.15	1.0079
1027	NC=O	66	MPD2	N	1	-0.547	14.0067
1028	HNCO	66	MPD2	H5	1	0.37	1.0079
1029	NC=O	66	MPD2	N1	1	-0.547	14.0067
1030	HNCO	66	MPD2	H7	1	0.37	1.0079
1031	CB	67	TMC2	C1	1	0.0862	12.011
1032	CB	67	TMC2	C2	1	-0.15	12.011
1033	CB	67	TMC2	C3	1	0.0862	12.011
1034	CB	67	TMC2	C4	1	-0.15	12.011
1035	CB	67	TMC2	C5	1	0.0862	12.011
1036	CB	67	TMC2	C6	1	-0.15	12.011
1037	C=O	67	TMC2	C	1	0.5438	12.011
1038	O=C	67	TMC2	O	1	-0.57	15.9994
1039	HCMM	67	TMC2	H	1	0.15	1.0079
1040	HCMM	67	TMC2	H1	1	0.15	1.0079
1041	HCMM	67	TMC2	H2	1	0.15	1.0079
1042	C=O	67	TMC2	C7	1	0.5438	12.011
1043	C=O	67	TMC2	C8	1	0.6338	12.011
1044	O=C	67	TMC2	O1	1	-0.57	15.9994
1045	O=C	67	TMC2	O2	1	-0.57	15.9994
1046	OR	67	TMC2	O5	1	-0.65	15.9994
1047	HOCO	67	TMC2	H5	1	0.5	1.0079
1048	CB	68	MPD2	C	1	-0.15	12.011
1049	CB	68	MPD2	C1	1	0.117	12.011
1050	CB	68	MPD2	C2	1	-0.15	12.011
1051	CB	68	MPD2	C3	1	0.117	12.011
1052	CB	68	MPD2	C4	1	-0.15	12.011
1053	CB	68	MPD2	C5	1	-0.15	12.011
1054	HCMM	68	MPD2	H	1	0.15	1.0079
1055	HCMM	68	MPD2	H1	1	0.15	1.0079
1056	HCMM	68	MPD2	H2	1	0.15	1.0079
1057	HCMM	68	MPD2	H3	1	0.15	1.0079
1058	NC=O	68	MPD2	N	1	-0.547	14.0067
1059	HNCO	68	MPD2	H5	1	0.37	1.0079
1060	NC=O	68	MPD2	N1	1	-0.547	14.0067
1061	HNCO	68	MPD2	H7	1	0.37	1.0079
1062	CB	69	MPD2	C	1	-0.15	12.011
1063	CB	69	MPD2	C1	1	0.117	12.011
1064	CB	69	MPD2	C2	1	-0.15	12.011
1065	CB	69	MPD2	C3	1	0.117	12.011
1066	CB	69	MPD2	C4	1	-0.15	12.011
1067	CB	69	MPD2	C5	1	-0.15	12.011
1068	HCMM	69	MPD2	H	1	0.15	1.0079
1069	HCMM	69	MPD2	H1	1	0.15	1.0079
1070	HCMM	69	MPD2	H2	1	0.15	1.0079
1071	HCMM	69	MPD2	H3	1	0.15	1.0079
1072	NC=O	69	MPD2	N	1	-0.547	14.0067
1073	HNCO	69	MPD2	H5	1	0.37	1.0079
1074	NC=O	69	MPD2	N1	1	-0.547	14.0067
1075	HNCO	69	MPD2	H7	1	0.37	1.0079
1076	C=O	70	TCq2	C1	1	0.5438	12.011
1077	O=C	70	TCq2	O2	1	-0.57	15.9994
1078	CB	70	TCq2	C2	1	0.0862	12.011
1079	CB	70	TCq2	C3	1	-0.15	12.011
1080	CB	70	TCq2	C4	1	-0.179	12.011
1081	CB	70	TCq2	C5	1	-0.15	12.011
1082	CB	70	TCq2	C6	1	0.0862	12.011
1083	CB	70	TCq2	C7	1	-0.15	12.011
1084	C=O	70	TCq2	C8	1	0.5438	12.011
1085	O=C	70	TCq2	O4	1	-0.57	15.9994
1086	CO2M	70	TCq2	C9	1	0.979	12.011
1087	O2CM	70	TCq2	O5	1	-0.9	15.9994
1088	O2CM	70	TCq2	O6	1	-0.9	15.9994
1089	HCMM	70	TCq2	H2	1	0.15	1.0079
1090	HCMM	70	TCq2	H3	1	0.15	1.0079
1091	HCMM	70	TCq2	H4	1	0.15	1.0079
1092	CB	71	TMC2	C1	1	0.0862	12.011
1093	CB	71	TMC2	C2	1	-0.15	12.011
1094	CB	71	TMC2	C3	1	0.0862	12.011
1095	CB	71	TMC2	C4	1	-0.15	12.011
1096	CB	71	TMC2	C5	1	0.0862	12.011
1097	CB	71	TMC2	C6	1	-0.15	12.011
1098	C=O	71	TMC2	C	1	0.5438	12.011
1099	O=C	71	TMC2	O	1	-0.57	15.9994
1100	HCMM	71	TMC2	H	1	0.15	1.0079
1101	HCMM	71	TMC2	H1	1	0.15	1.0079
1102	HCMM	71	TMC2	H2	1	0.15	1.0079
1103	C=O	71	TMC2	C7	1	0.5438	12.011
1104	C=O	71	TMC2	C8	1	0.6338	12.011
1105	O=C	71	TMC2	O1	1	-0.57	15.9994
1106	O=C	71	TMC2	O2	1	-0.57	15.9994
1107	OR	71	TMC2	O5	1	-0.65	15.9994
1108	HOCO	71	TMC2	H5	1	0.5	1.0079
1109	CB	72	MPD2	C	1	-0.15	12.011
1110	CB	72	MPD2	C1	1	0.117	12.011
1111	CB	72	MPD2	C2	1	-0.15	12.011
1112	CB	72	MPD2	C3	1	0.117	12.011
1113	CB	72	MPD2	C4	1	-0.15	12.011
1114	CB	72	MPD2	C5	1	-0.15	12.011
1115	HCMM	72	MPD2	H	1	0.15	1.0079
1116	HCMM	72	MPD2	H1	1	0.15	1.0079
1117	HCMM	72	MPD2	H2	1	0.15	1.0079
1118	HCMM	72	MPD2	H3	1	0.15	1.0079
1119	NC=O	72	MPD2	N	1	-0.547	14.0067
1120	HNCO	72	MPD2	H5	1	0.37	1.0079
1121	NC=O	72	MPD2	N1	1	-0.547	14.0067
1122	HNCO	72	MPD2	H7	1	0.37	1.0079
1123	CB	73	TMC2	C1	1	0.0862	12.011
1124	CB	73	TMC2	C2	1	-0.15	12.011
1125	CB	73	TMC2	C3	1	0.0862	12.011
1126	CB	73	TMC2	C4	1	-0.15	12.011
1127	CB	73	TMC2	C5	1	0.0862	12.011
1128	CB	73	TMC2	C6	1	-0.15	12.011
1129	C=O	73	TMC2	C	1	0.5438	12.011
1130	O=C	73	TMC2	O	1	-0.57	15.9994
1131	HCMM	73	TMC2	H	1	0.15	1.0079
1132	HCMM	73	TMC2	H1	1	0.15	1.0079
1133	HCMM	73	TMC2	H2	1	0.15	1.0079
1134	C=O	73	TMC2	C7	1	0.5438	12.011
1135	C=O	73	TMC2	C8	1	0.6338	12.011
1136	O=C	73	TMC2	O1	1	-0.57	15.9994
1137	O=C	73	TMC2	O2	1	-0.57	15.9994
1138	OR	73	TMC2	O5	1	-0.65	15.9994
1139	HOCO	73	TMC2	H5	1	0.5	1.0079
1140	CB	74	MPD2	C	1	-0.15	12.011
1141	CB	74	MPD2	C1	1	0.117	12.011
1142	CB	74	MPD2	C2	1	-0.15	12.011
1143	CB	74	MPD2	C3	1	0.117	12.011
1144	CB	74	MPD2	C4	1	-0.15	12.011
1145	CB	74	MPD2	C5	1	-0.15	12.011
1146	HCMM	74	MPD2	H	1	0.15	1.0079
1147	HCMM	74	MPD2	H1	1	0.15	1.0079
1148	HCMM	74	MPD2	H2	1	0.15	1.0079
1149	HCMM	74	MPD2	H3	1	0.15	1.0079
1150	NC=O	74	MPD2	N	1	-0.547	14.0067
1151	HNCO	74	MPD2	H5	1	0.37	1.0079
1152	NC=O	74	MPD2	N1	1	-0.547	14.0067
1153	HNCO	74	MPD2	H7	1	0.37	1.0079
1154	CB	75	TMC2	C1	1	0.0862	12.011
1155	CB	75	TMC2	C2	1	-0.15	12.011
1156	CB	75	TMC2	C3	1	0.0862	12.011
1157	CB	75	TMC2	C4	1	-0.15	12.011
1158	CB	75	TMC2	C5	1	0.0862	12.011
1159	CB	75	TMC2	C6	1	-0.15	12.011
1160	C=O	75	TMC2	C	1	0.5438	12.011
1161	O=C	75	TMC2	O	1	-0.57	15.9994
1162	HCMM	75	TMC2	H	1	0.15	1.0079
1163	HCMM	75	TMC2	H1	1	0.15	1.0079
1164	HCMM	75	TMC2	H2	1	0.15	1.0079
1165	C=O	75	TMC2	C7	1	0.5438	12.011
1166	C=O	75	TMC2	C8	1	0.6338	12.011
1167	O=C	75	TMC2	O1	1	-0.57	15.9994
1168	O=C	75	TMC2	O2	1	-0.57	15.9994
1169	OR	75	TMC2	O5	1	-0.65	15.9994
1170	HOCO	75	TMC2	H5	1	0.5	1.0079
1171	CB	76	TMC2	C1	1	0.0862	12.011
1172	CB	76	TMC2	C2	1	-0.15	12.011
1173	CB	76	TMC2	C3	1	0.0862	12.011
1174	CB	76	TMC2	C4	1	-0.15	12.011
1175	CB	76	TMC2	C5	1	0.0862	12.011
1176	CB	76	TMC2	C6	1	-0.15	12.011
1177	C=O	76	TMC2	C	1	0.5438	12.011
1178	O=C	76	TMC2	O	1	-0.57	15.9994
1179	HCMM	76	TMC2	H	1	0.15	1.0079
1180	HCMM	76	TMC2	H1	1	0.15	1.0079
1181	HCMM	76	TMC2	H2	1	0.15	1.0079
1182	C=O	76	TMC2	C7	1	0.5438	12.011
1183	C=O	76	TMC2	C8	1	0.6338	12.011
1184	O=C	76	TMC2	O1	1	-0.57	15.9994
1185	O=C	76	TMC2	O2	1	-0.57	15.9994
1186	OR	76	TMC2	O5	1	-0.65	15.9994
1187	HOCO	76	TMC2	H5	1	0.5	1.0079
1188	CB	77	MPD2	C	1	-0.15	12.011
1189	CB	77	MPD2	C1	1	0.117	12.011
1190	CB	77	MPD2	C2	1	-0.15	12.011
1191	CB	77	MPD2	C3	1	0.117	12.011
1192	CB	77	MPD2	C4	1	-0.15	12.011
1193	CB	77	MPD2	C5	1	-0.15	12.011
1194	HCMM	77	MPD2	H	1	0.15	1.0079
1195	HCMM	77	MPD2	H1	1	0.15	1.0079
1196	HCMM	77	MPD2	H2	1	0.15	1.0079
1197	HCMM	77	MPD2	H3	1	0.15	1.0079
1198	NC=O	77	MPD2	N	1	-0.547	14.0067
1199	HNCO	77	MPD2	H5	1	0.37	1.0079
1200	NC=O	77	MPD2	N1	1	-0.547	14.0067
1201	HNCO	77	MPD2	H7	1	0.37	1.0079
1202	CB	78	TMC2	C1	1	0.0862	12.011
1203	CB	78	TMC2	C2	1	-0.15	12.011
1204	CB	78	TMC2	C3	1	0.0862	12.011
1205	CB	78	TMC2	C4	1	-0.15	12.011
1206	CB	78	TMC2	C5	1	0.0862	12.011
1207	CB	78	TMC2	C6	1	-0.15	12.011
1208	C=O	78	TMC2	C	1	0.5438	12.011
1209	O=C	78	TMC2	O	1	-0.57	15.9994
1210	HCMM	78	TMC2	H	1	0.15	1.0079
1211	HCMM	78	TMC2	H1	1	0.15	1.0079
1212	HCMM	78	TMC2	H2	1	0.15	1.0079
1213	C=O	78	TMC2	C7	1	0.5438	12.011
1214	C=O	78	TMC2	C8	1	0.6338	12.011
1215	O=C	78	TMC2	O1	1	-0.57	15.9994
1216	O=C	78	TMC2	O2	1	-0.57	15.9994
1217	OR	78	TMC2	O5	1	-0.65	15.9994
1218	HOCO	78	TMC2	H5	1	0.5	1.0079
1219	CB	79	MPD1	C	1	-0.15	12.011
1220	CB	79	MPD1	C1	1	0.1	12.011
1221	CB	79	MPD1	C2	1	-0.15	12.011
1222	CB	79	MPD1	C3	1	0.117	12.011
1223	CB	79	MPD1	C4	1	-0.15	12.011
1224	CB	79	MPD1	C5	1	-0.15	12.011
1225	HCMM	79	MPD1	H	1	0.15	1.0079
1226	HCMM	79	MPD1	H1	1	0.15	1.0079
1227	HCMM	79	MPD1	H2	1	0.15	1.0079
1228	HCMM	79	MPD1	H3	1	0.15	1.0079
1229	NC=O	79	MPD1	N	1	-0.547	14.0067
1230	HNCO	79	MPD1	H5	1	0.37	1.0079
1231	NC=C	79	MPD1	N1	1	-0.9	14.0067
1232	HNCO	79	MPD1	H6	1	0.4	1.0079
1233	HNCO	79	MPD1	H7	1	0.4	1.0079
1234	CB	80	MPD2	C	1	-0.15	12.011
1235	CB	80	MPD2	C1	1	0.117	12.011
1236	CB	80	MPD2	C2	1	-0.15	12.011
1237	CB	80	MPD2	C3	1	0.117	12.011
1238	CB	80	MPD2	C4	1	-0.15	12.011
1239	CB	80	MPD2	C5	1	-0.15	12.011
1240	HCMM	80	MPD2	H	1	0.15	1.0079
1241	HCMM	80	MPD2	H1	1	0.15	1.0079
1242	HCMM	80	MPD2	H2	1	0.15	1.0079
1243	HCMM	80	MPD2	H3	1	0.15	1.0079
1244	NC=O	80	MPD2	N	1	-0.547	14.0067
1245	HNCO	80	MPD2	H5	1	0.37	1.0079
1246	NC=O	80	MPD2	N1	1	-0.547	14.0067
1247	HNCO	80	MPD2	H7	1	0.37	1.0079
1248	C=O	81	TCq2	C1	1	0.5438	12.011
1249	O=C	81	TCq2	O2	1	-0.57	15.9994
1250	CB	81	TCq2	C2	1	0.0862	12.011
1251	CB	81	TCq2	C3	1	-0.15	12.011
1252	CB	81	TCq2	C4	1	-0.179	12.011
1253	CB	81	TCq2	C5	1	-0.15	12.011
1254	CB	81	TCq2	C6	1	0.0862	12.011
1255	CB	81	TCq2	C7	1	-0.15	12.011
1256	C=O	81	TCq2	C8	1	0.5438	12.011
1257	O=C	81	TCq2	O4	1	-0.57	15.9994
1258	CO2M	81	TCq2	C9	1	0.979	12.011
1259	O2CM	81	TCq2	O5	1	-0.9	15.9994
1260	O2CM	81	TCq2	O6	1	-0.9	15.9994
1261	HCMM	81	TCq2	H2	1	0.15	1.0079
1262	HCMM	81	TCq2	H3	1	0.15	1.0079
1263	HCMM	81	TCq2	H4	1	0.15	1.0079
1264	CB	82	TMC2	C1	1	0.0862	12.011
1265	CB	82	TMC2	C2	1	-0.15	12.011
1266	CB	82	TMC2	C3	1	0.0862	12.011
1267	CB	82	TMC2	C4	1	-0.15	12.011
1268	CB	82	TMC2	C5	1	0.0862	12.011
1269	CB	82	TMC2	C6	1	-0.15	12.011
1270	C=O	82	TMC2	C	1	0.5438	12.011
1271	O=C	82	TMC2	O	1	-0.57	15.9994
1272	HCMM	82	TMC2	H	1	0.15	1.0079
1273	HCMM	82	TMC2	H1	1	0.15	1.0079
1274	HCMM	82	TMC2	H2	1	0.15	1.0079
1275	C=O	82	TMC2	C7	1	0.5438	12.011
1276	C=O	82	TMC2	C8	1	0.6338	12.011
1277	O=C	82	TMC2	O1	1	-0.57	15.9994
1278	O=C	82	TMC2	O2	1	-0.57	15.9994
1279	OR	82	TMC2	O5	1	-0.65	15.9994
1280	HOCO	82	TMC2	H5	1	0.5	1.0079
1281	CB	83	MPD2	C	1	-0.15	12.011
1282	CB	83	MPD2	C1	1	0.117	12.011
1283	CB	83	MPD2	C2	1	-0.15	12.011
1284	CB	83	MPD2	C3	1	0.117	12.011
1285	CB	83	MPD2	C4	1	-0.15	12.011
1286	CB	83	MPD2	C5	1	-0.15	12.011
1287	HCMM	83	MPD2	H	1	0.15	1.0079
1288	HCMM	83	MPD2	H1	1	0.15	1.0079
1289	HCMM	83	MPD2	H2	1	0.15	1.0079
1290	HCMM	83	MPD2	H3	1	0.15	1.0079
1291	NC=O	83	MPD2	N	1	-0.547	14.0067
1292	HNCO	83	MPD2	H5	1	0.37	1.0079
1293	NC=O	83	MPD2	N1	1	-0.547	14.0067
1294	HNCO	83	MPD2	H7	1	0.37	1.0079
1295	C=O	84	TCq2	C1	1	0.5438	12.011
1296	O=C	84	TCq2	O2	1	-0.57	15.9994
1297	CB	84	TCq2	C2	1	0.0862	12.011
1298	CB	84	TCq2	C3	1	-0.15	12.011
1299	CB	84	TCq2	C4	1	-0.179	12.011
1300	CB	84	TCq2	C5	1	-0.15	12.011
1301	CB	84	TCq2	C6	1	0.0862	12.011
1302	CB	84	TCq2	C7	1	-0.15	12.011
1303	C=O	84	TCq2	C8	1	0.5438	12.011
1304	O=C	84	TCq2	O4	1	-0.57	15.9994
1305	CO2M	84	TCq2	C9	1	0.979	12.011
1306	O2CM	84	TCq2	O5	1	-0.9	15.9994
1307	O2CM	84	TCq2	O6	1	-0.9	15.9994
1308	HCMM	84	TCq2	H2	1	0.15	1.0079
1309	HCMM	84	TCq2	H3	1	0.15	1.0079
1310	HCMM	84	TCq2	H4	1	0.15	1.0079
1311	CB	85	TMC2	C1	1	0.0862	12.011
1312	CB	85	TMC2	C2	1	-0.15	12.011
1313	CB	85	TMC2	C3	1	0.0862	12.011
1314	CB	85	TMC2	C4	1	-0.15	12.011
1315	CB	85	TMC2	C5	1	0.0862	12.011
1316	CB	85	TMC2	C6	1	-0.15	12.011
1317	C=O	85	TMC2	C	1	0.5438	12.011
1318	O=C	85	TMC2	O	1	-0.57	15.9994
1319	HCMM	85	TMC2	H	1	0.15	1.0079
1320	HCMM	85	TMC2	H1	1	0.15	1.0079
1321	HCMM	85	TMC2	H2	1	0.15	1.0079
1322	C=O	85	TMC2	C7	1	0.5438	12.011
1323	C=O	85	TMC2	C8	1	0.6338	12.011
1324	O=C	85	TMC2	O1	1	-0.57	15.9994
1325	O=C	85	TMC2	O2	1	-0.57	15.9994
1326	OR	85	TMC2	O5	1	-0.65	15.9994
1327	HOCO	85	TMC2	H5	1	0.5	1.0079
1328	CB	86	MPD2	C	1	-0.15	12.011
1329	CB	86	MPD2	C1	1	0.117	12.011
1330	CB	86	MPD2	C2	1	-0.15	12.011
1331	CB	86	MPD2	C3	1	0.117	12.011
1332	CB	86	MPD2	C4	1	-0.15	12.011
1333	CB	86	MPD2	C5	1	-0.15	12.011
1334	HCMM	86	MPD2	H	1	0.15	1.0079
1335	HCMM	86	MPD2	H1	1	0.15	1.0079
1336	HCMM	86	MPD2	H2	1	0.15	1.0079
1337	HCMM	86	MPD2	H3	1	0.15	1.0079
1338	NC=O	86	MPD2	N	1	-0.547	14.0067
1339	HNCO	86	MPD2	H5	1	0.37	1.0079
1340	NC=O	86	MPD2	N1	1	-0.547	14.0067
1341	HNCO	86	MPD2	H7	1	0.37	1.0079
1342	CB	87	TMC2	C1	1	0.0862	12.011
1343	CB	87	TMC2	C2	1	-0.15	12.011
1344	CB	87	TMC2	C3	1	0.0862	12.011
1345	CB	87	TMC2	C4	1	-0.15	12.011
1346	CB	87	TMC2	C5	1	0.0862	12.011
1347	CB	87	TMC2	C6	1	-0.15	12.011
1348	C=O	87	TMC2	C	1	0.5438	12.011
1349	O=C	87	TMC2	O	1	-0.57	15.9994
1350	HCMM	87	TMC2	H	1	0.15	1.0079
1351	HCMM	87	TMC2	H1	1	0.15	1.0079
1352	HCMM	87	TMC2	H2	1	0.15	1.0079
1353	C=O	87	TMC2	C7	1	0.5438	12.011
1354	C=O	87	TMC2	C8	1	0.6338	12.011
1355	O=C	87	TMC2	O1	1	-0.57	15.9994
1356	O=C	87	TMC2	O2	1	-0.57	15.9994
1357	OR	87	TMC2	O5	1	-0.65	15.9994
1358	HOCO	87	TMC2	H5	1	0.5	1.0079
1359	CB	88	MPD2	C	1	-0.15	12.011
1360	CB	88	MPD2	C1	1	0.117	12.011
1361	CB	88	MPD2	C2	1	-0.15	12.011
1362	CB	88	MPD2	C3	1	0.117	12.011
1363	CB	88	MPD2	C4	1	-0.15	12.011
1364	CB	88	MPD2	C5	1	-0.15	12.011
1365	HCMM	88	MPD2	H	1	0.15	1.0079
1366	HCMM	88	MPD2	H1	1	0.15	1.0079
1367	HCMM	88	MPD2	H2	1	0.15	1.0079
1368	HCMM	88	MPD2	H3	1	0.15	1.0079
1369	NC=O	88	MPD2	N	1	-0.547	14.0067
1370	HNCO	88	MPD2	H5	1	0.37	1.0079
1371	NC=O	88	MPD2	N1	1	-0.547	14.0067
1372	HNCO	88	MPD2	H7	1	0.37	1.0079
1373	CB	89	TMC2	C1	1	0.0862	12.011
1374	CB	89	TMC2	C2	1	-0.15	12.011
1375	CB	89	TMC2	C3	1	0.0862	12.011
1376	CB	89	TMC2	C4	1	-0.15	12.011
1377	CB	89	TMC2	C5	1	0.0862	12.011
1378	CB	89	TMC2	C6	1	-0.15	12.011
1379	C=O	89	TMC2	C	1	0.5438	12.011
1380	O=C	89	TMC2	O	1	-0.57	15.9994
1381	HCMM	89	TMC2	H	1	0.15	1.0079
1382	HCMM	89	TMC2	H1	1	0.15	1.0079
1383	HCMM	89	TMC2	H2	1	0.15	1.0079
1384	C=O	89	TMC2	C7	1	0.5438	12.011
1385	C=O	89	TMC2	C8	1	0.6338	12.011
1386	O=C	89	TMC2	O1	1	-0.57	15.9994
1387	O=C	89	TMC2	O2	1	-0.57	15.9994
1388	OR	89	TMC2	O5	1	-0.65	15.9994
1389	HOCO	89	TMC2	H5	1	0.5	1.0079
1390	CB	90	MPD2	C	1	-0.15	12.011
1391	CB	90	MPD2	C1	1	0.117	12.011
1392	CB	90	MPD2	C2	1	-0.15	12.011
1393	CB	90	MPD2	C3	1	0.117	12.011
1394	CB	90	MPD2	C4	1	-0.15	12.011
1395	CB	90	MPD2	C5	1	-0.15	12.011
1396	HCMM	90	MPD2	H	1	0.15	1.0079
1397	HCMM	90	MPD2	H1	1	0.15	1.0079
1398	HCMM	90	MPD2	H2	1	0.15	1.0079
1399	HCMM	90	MPD2	H3	1	0.15	1.0079
1400	NC=O	90	MPD2	N	1	-0.547	14.0067
1401	HNCO	90	MPD2	H5	1	0.37	1.0079
1402	NC=O	90	MPD2	N1	1	-0.547	14.0067
1403	HNCO	90	MPD2	H7	1	0.37	1.0079
1404	CB	91	TMC2	C1	1	0.0862	12.011
1405	CB	91	TMC2	C2	1	-0.15	12.011
1406	CB	91	TMC2	C3	1	0.0862	12.011
1407	CB	91	TMC2	C4	1	-0.15	12.011
1408	CB	91	TMC2	C5	1	0.0862	12.011
1409	CB	91	TMC2	C6	1	-0.15	12.011
1410	C=O	91	TMC2	C	1	0.5438	12.011
1411	O=C	91	TMC2	O	1	-0.57	15.9994
1412	HCMM	91	TMC2	H	1	0.15	1.0079
1413	HCMM	91	TMC2	H1	1	0.15	1.0079
1414	HCMM	91	TMC2	H2	1	0.15	1.0079
1415	C=O	91	TMC2	C7	1	0.5438	12.011
1416	C=O	91	TMC2	C8	1	0.6338	12.011
1417	O=C	91	TMC2	O1	1	-0.57	15.9994
1418	O=C	91	TMC2	O2	1	-0.57	15.9994
1419	OR	91	TMC2	O5	1	-0.65	15.9994
1420	HOCO	91	TMC2	H5	1	0.5	1.0079
1421	CB	92	MPD2	C	1	-0.15	12.011
1422	CB	92	MPD2	C1	1	0.117	12.011
1423	CB	92	MPD2	C2	1	-0.15	12.011
1424	CB	92	MPD2	C3	1	0.117	12.011
1425	CB	92	MPD2	C4	1	-0.15	12.011
1426	CB	92	MPD2	C5	1	-0.15	12.011
1427	HCMM	92	MPD2	H	1	0.15	1.0079
1428	HCMM	92	MPD2	H1	1	0.15	1.0079
1429	HCMM	92	MPD2	H2	1	0.15	1.0079
1430	HCMM	92	MPD2	H3	1	0.15	1.0079
1431	NC=O	92	MPD2	N	1	-0.547	14.0067
1432	HNCO	92	MPD2	H5	1	0.37	1.0079
1433	NC=O	92	MPD2	N1	1	-0.547	14.0067
1434	HNCO	92	MPD2	H7	1	0.37	1.0079
1435	CB	93	MPD2	C	1	-0.15	12.011
1436	CB	93	MPD2	C1	1	0.117	12.011
1437	CB	93	MPD2	C2	1	-0.15	12.011
1438	CB	93	MPD2	C3	1	0.117	12.011
1439	CB	93	MPD2	C4	1	-0.15	12.011
1440	CB	93	MPD2	C5	1	-0.15	12.011
1441	HCMM	93	MPD2	H	1	0.15	1.0079
1442	HCMM	93	MPD2	H1	1	0.15	1.0079
1443	HCMM	93	MPD2	H2	1	0.15	1.0079
1444	HCMM	93	MPD2	H3	1	0.15	1.0079
1445	NC=O	93	MPD2	N	1	-0.547	14.0067
1446	HNCO	93	MPD2	H5	1	0.37	1.0079
1447	NC=O	93	MPD2	N1	1	-0.547	14.0067
1448	HNCO	93	MPD2	H7	1	0.37	1.0079
1449	C=O	94	TCq2	C1	1	0.5438	12.011
1450	O=C	94	TCq2	O2	1	-0.57	15.9994
1451	CB	94	TCq2	C2	1	0.0862	12.011
1452	CB	94	TCq2	C3	1	-0.15	12.011
1453	CB	94	TCq2	C4	1	-0.179	12.011
1454	CB	94	TCq2	C5	1	-0.15	12.011
1455	CB	94	TCq2	C6	1	0.0862	12.011
1456	CB	94	TCq2	C7	1	-0.15	12.011
1457	C=O	94	TCq2	C8	1	0.5438	12.011
1458	O=C	94	TCq2	O4	1	-0.57	15.9994
1459	CO2M	94	TCq2	C9	1	0.979	12.011
1460	O2CM	94	TCq2	O5	1	-0.9	15.9994
1461	O2CM	94	TCq2	O6	1	-0.9	15.9994
1462	HCMM	94	TCq2	H2	1	0.15	1.0079
1463	HCMM	94	TCq2	H3	1	0.15	1.0079
1464	HCMM	94	TCq2	H4	1	0.15	1.0079
1465	CB	95	TMC2	C1	1	0.0862	12.011
1466	CB	95	TMC2	C2	1	-0.15	12.011
1467	CB	95	TMC2	C3	1	0.0862	12.011
1468	CB	95	TMC2	C4	1	-0.15	12.011
1469	CB	95	TMC2	C5	1	0.0862	12.011
1470	CB	95	TMC2	C6	1	-0.15	12.011
1471	C=O	95	TMC2	C	1	0.5438	12.011
1472	O=C	95	TMC2	O	1	-0.57	15.9994
1473	HCMM	95	TMC2	H	1	0.15	1.0079
1474	HCMM	95	TMC2	H1	1	0.15	1.0079
1475	HCMM	95	TMC2	H2	1	0.15	1.0079
1476	C=O	95	TMC2	C7	1	0.5438	12.011
1477	C=O	95	TMC2	C8	1	0.6338	12.011
1478	O=C	95	TMC2	O1	1	-0.57	15.9994
1479	O=C	95	TMC2	O2	1	-0.57	15.9994
1480	OR	95	TMC2	O5	1	-0.65	15.9994
1481	HOCO	95	TMC2	H5	1	0.5	1.0079
1482	CB	96	MPD2	C	1	-0.15	12.011
1483	CB	96	MPD2	C1	1	0.117	12.011
1484	CB	96	MPD2	C2	1	-0.15	12.011
1485	CB	96	MPD2	C3	1	0.117	12.011
1486	CB	96	MPD2	C4	1	-0.15	12.011
1487	CB	96	MPD2	C5	1	-0.15	12.011
1488	HCMM	96	MPD2	H	1	0.15	1.0079
1489	HCMM	96	MPD2	H1	1	0.15	1.0079
1490	HCMM	96	MPD2	H2	1	0.15	1.0079
1491	HCMM	96	MPD2	H3	1	0.15	1.0079
1492	NC=O	96	MPD2	N	1	-0.547	14.0067
1493	HNCO	96	MPD2	H5	1	0.37	1.0079
1494	NC=O	96	MPD2	N1	1	-0.547	14.0067
1495	HNCO	96	MPD2	H7	1	0.37	1.0079
1496	CB	97	MPD2	C	1	-0.15	12.011
1497	CB	97	MPD2	C1	1	0.117	12.011
1498	CB	97	MPD2	C2	1	-0.15	12.011
1499	CB	97	MPD2	C3	1	0.117	12.011
1500	CB	97	MPD2	C4	1	-0.15	12.011
1501	CB	97	MPD2	C5	1	-0.15	12.011
1502	HCMM	97	MPD2	H	1	0.15	1.0079
1503	HCMM	97	MPD2	H1	1	0.15	1.0079
1504	HCMM	97	MPD2	H2	1	0.15	1.0079
1505	HCMM	97	MPD2	H3	1	0.15	1.0079
1506	NC=O	97	MPD2	N	1	-0.547	14.0067
1507	HNCO	97	MPD2	H5	1	0.37	1.0079
1508	NC=O	97	MPD2	N1	1	-0.547	14.0067
1509	HNCO	97	MPD2	H7	1	0.37	1.0079
1510	C=O	98	TCq2	C1	1	0.5438	12.011
1511	O=C	98	TCq2	O2	1	-0.57	15.9994
1512	CB	98	TCq2	C2	1	0.0862	12.011
1513	CB	98	TCq2	C3	1	-0.15	12.011
1514	CB	98	TCq2	C4	1	-0.179	12.011
1515	CB	98	TCq2	C5	1	-0.15	12.011
1516	CB	98	TCq2	C6	1	0.0862	12.011
1517	CB	98	TCq2	C7	1	-0.15	12.011
1518	C=O	98	TCq2	C8	1	0.5438	12.011
1519	O=C	98	TCq2	O4	1	-0.57	15.9994
1520	CO2M	98	TCq2	C9	1	0.979	12.011
1521	O2CM	98	TCq2	O5	1	-0.9	15.9994
1522	O2CM	98	TCq2	O6	1	-0.9	15.9994
1523	HCMM	98	TCq2	H2	1	0.15	1.0079
1524	HCMM	98	TCq2	H3	1	0.15	1.0079
1525	HCMM	98	TCq2	H4	1	0.15	1.0079
1526	CB	99	TMC2	C1	1	0.0862	12.011
1527	CB	99	TMC2	C2	1	-0.15	12.011
1528	CB	99	TMC2	C3	1	0.0862	12.011
1529	CB	99	TMC2	C4	1	-0.15	12.011
1530	CB	99	TMC2	C5	1	0.0862	12.011
1531	CB	99	TMC2	C6	1	-0.15	12.011
1532	C=O	99	TMC2	C	1	0.5438	12.011
1533	O=C	99	TMC2	O	1	-0.57	15.9994
1534	HCMM	99	TMC2	H	1	0.15	1.0079
1535	HCMM	99	TMC2	H1	1	0.15	1.0079
1536	HCMM	99	TMC2	H2	1	0.15	1.0079
1537	C=O	99	TMC2	C7	1	0.5438	12.011
1538	C=O	99	TMC2	C8	1	0.6338	12.011
1539	O=C	99	TMC2	O1	1	-0.57	15.9994
1540	O=C	99	TMC2	O2	1	-0.57	15.9994
1541	OR	99	TMC2	O5	1	-0.65	15.9994
1542	HOCO	99	TMC2	H5	1	0.5	1.0079
1543	CB	100	MPD2	C	1	-0.15	12.011
1544	CB	100	MPD2	C1	1	0.117	12.011
1545	CB	100	MPD2	C2	1	-0.15	12.011
1546	CB	100	MPD2	C3	1	0.117	12.011
1547	CB	100	MPD2	C4	1	-0.15	12.011
1548	CB	100	MPD2	C5	1	-0.15	12.011
1549	HCMM	100	MPD2	H	1	0.15	1.0079
1550	HCMM	100	MPD2	H1	1	0.15	1.0079
1551	HCMM	100	MPD2	H2	1	0.15	1.0079
1552	HCMM	100	MPD2	H3	1	0.15	1.0079
1553	NC=O	100	MPD2	N	1	-0.547	14.0067
1554	HNCO	100	MPD2	H5	1	0.37	1.0079
1555	NC=O	100	MPD2	N1	1	-0.547	14.0067
1556	HNCO	100	MPD2	H7	1	0.37	1.0079
1557	CB	101	MPD2	C	1	-0.15	12.011
1558	CB	101	MPD2	C1	1	0.117	12.011
1559	CB	101	MPD2	C2	1	-0.15	12.011
1560	CB	101	MPD2	C3	1	0.117	12.011
1561	CB	101	MPD2	C4	1	-0.15	12.011
1562	CB	101	MPD2	C5	1	-0.15	12.011
1563	HCMM	101	MPD2	H	1	0.15	1.0079
1564	HCMM	101	MPD2	H1	1	0.15	1.0079
1565	HCMM	101	MPD2	H2	1	0.15	1.0079
1566	HCMM	101	MPD2	H3	1	0.15	1.0079
1567	NC=O	101	MPD2	N	1	-0.547	14.0067
1568	HNCO	101	MPD2	H5	1	0.37	1.0079
1569	NC=O	101	MPD2	N1	1	-0.547	14.0067
1570	HNCO	101	MPD2	H7	1	0.37	1.0079
1571	C=O	102	TCq2	C1	1	0.5438	12.011
1572	O=C	102	TCq2	O2	1	-0.57	15.9994
1573	CB	102	TCq2	C2	1	0.0862	12.011
1574	CB	102	TCq2	C3	1	-0.15	12.011
1575	CB	102	TCq2	C4	1	-0.179	12.011
1576	CB	102	TCq2	C5	1	-0.15	12.011
1577	CB	102	TCq2	C6	1	0.0862	12.011
1578	CB	102	TCq2	C7	1	-0.15	12.011
1579	C=O	102	TCq2	C8	1	0.5438	12.011
1580	O=C	102	TCq2	O4	1	-0.57	15.9994
1581	CO2M	102	TCq2	C9	1	0.979	12.011
1582	O2CM	102	TCq2	O5	1	-0.9	15.9994
1583	O2CM	102	TCq2	O6	1	-0.9	15.9994
1584	HCMM	102	TCq2	H2	1	0.15	1.0079
1585	HCMM	102	TCq2	H3	1	0.15	1.0079
1586	HCMM	102	TCq2	H4	1	0.15	1.0079
1587	CB	103	TMC2	C1	1	0.0862	12.011
1588	CB	103	TMC2	C2	1	-0.15	12.011
1589	CB	103	TMC2	C3	1	0.0862	12.011
1590	CB	103	TMC2	C4	1	-0.15	12.011
1591	CB	103	TMC2	C5	1	0.0862	12.011
1592	CB	103	TMC2	C6	1	-0.15	12.011
1593	C=O	103	TMC2	C	1	0.5438	12.011
1594	O=C	103	TMC2	O	1	-0.57	15.9994
1595	HCMM	103	TMC2	H	1	0.15	1.0079
1596	HCMM	103	TMC2	H1	1	0.15	1.0079
1597	HCMM	103	TMC2	H2	1	0.15	1.0079
1598	C=O	103	TMC2	C7	1	0.5438	12.011
1599	C=O	103	TMC2	C8	1	0.6338	12.011
1600	O=C	103	TMC2	O1	1	-0.57	15.9994
1601	O=C	103	TMC2	O2	1	-0.57	15.9994
1602	OR	103	TMC2	O5	1	-0.65	15.9994
1603	HOCO	103	TMC2	H5	1	0.5	1.0079
1604	CB	104	MPD2	C	1	-0.15	12.011
1605	CB	104	MPD2	C1	1	0.117	12.011
1606	CB	104	MPD2	C2	1	-0.15	12.011
1607	CB	104	MPD2	C3	1	0.117	12.011
1608	CB	104	MPD2	C4	1	-0.15	12.011
1609	CB	104	MPD2	C5	1	-0.15	12.011
1610	HCMM	104	MPD2	H	1	0.15	1.0079
1611	HCMM	104	MPD2	H1	1	0.15	1.0079
1612	HCMM	104	MPD2	H2	1	0.15	1.0079
1613	HCMM	104	MPD2	H3	1	0.15	1.0079
1614	NC=O	104	MPD2	N	1	-0.547	14.0067
1615	HNCO	104	MPD2	H5	1	0.37	1.0079
1616	NC=O	104	MPD2	N1	1	-0.547	14.0067
1617	HNCO	104	MPD2	H7	1	0.37	1.0079
1618	CB	105	MPD2	C	1	-0.15	12.011
1619	CB	105	MPD2	C1	1	0.117	12.011
1620	CB	105	MPD2	C2	1	-0.15	12.011
1621	CB	105	MPD2	C3	1	0.117	12.011
1622	CB	105	MPD2	C4	1	-0.15	12.011
1623	CB	105	MPD2	C5	1	-0.15	12.011
1624	HCMM	105	MPD2	H	1	0.15	1.0079
1625	HCMM	105	MPD2	H1	1	0.15	1.0079
1626	HCMM	105	MPD2	H2	1	0.15	1.0079
1627	HCMM	105	MPD2	H3	1	0.15	1.0079
1628	NC=O	105	MPD2	N	1	-0.547	14.0067
1629	HNCO	105	MPD2	H5	1	0.37	1.0079
1630	NC=O	105	MPD2	N1	1	-0.547	14.0067
1631	HNCO	105	MPD2	H7	1	0.37	1.0079
1632	C=O	106	TCq2	C1	1	0.5438	12.011
1633	O=C	106	TCq2	O2	1	-0.57	15.9994
1634	CB	106	TCq2	C2	1	0.0862	12.011
1635	CB	106	TCq2	C3	1	-0.15	12.011
1636	CB	106	TCq2	C4	1	-0.179	12.011
1637	CB	106	TCq2	C5	1	-0.15	12.011
1638	CB	106	TCq2	C6	1	0.0862	12.011
1639	CB	106	TCq2	C7	1	-0.15	12.011
1640	C=O	106	TCq2	C8	1	0.5438	12.011
1641	O=C	106	TCq2	O4	1	-0.57	15.9994
1642	CO2M	106	TCq2	C9	1	0.979	12.011
1643	O2CM	106	TCq2	O5	1	-0.9	15.9994
1644	O2CM	106	TCq2	O6	1	-0.9	15.9994
1645	HCMM	106	TCq2	H2	1	0.15	1.0079
1646	HCMM	106	TCq2	H3	1	0.15	1.0079
1647	HCMM	106	TCq2	H4	1	0.15	1.0079
1648	CB	107	TMC2	C1	1	0.0862	12.011
1649	CB	107	TMC2	C2	1	-0.15	12.011
1650	CB	107	TMC2	C3	1	0.0862	12.011
1651	CB	107	TMC2	C4	1	-0.15	12.011
1652	CB	107	TMC2	C5	1	0.0862	12.011
1653	CB	107	TMC2	C6	1	-0.15	12.011
1654	C=O	107	TMC2	C	1	0.5438	12.011
1655	O=C	107	TMC2	O	1	-0.57	15.9994
1656	HCMM	107	TMC2	H	1	0.15	1.0079
1657	HCMM	107	TMC2	H1	1	0.15	1.0079
1658	HCMM	107	TMC2	H2	1	0.15	1.0079
1659	C=O	107	TMC2	C7	1	0.5438	12.011
1660	C=O	107	TMC2	C8	1	0.6338	12.011
1661	O=C	107	TMC2	O1	1	-0.57	15.9994
1662	O=C	107	TMC2	O2	1	-0.57	15.9994
1663	OR	107	TMC2	O5	1	-0.65	15.9994
1664	HOCO	107	TMC2	H5	1	0.5	1.0079
1665	CB	108	MPD2	C	1	-0.15	12.011
1666	CB	108	MPD2	C1	1	0.117	12.011
1667	CB	108	MPD2	C2	1	-0.15	12.011
1668	CB	108	MPD2	C3	1	0.117	12.011
1669	CB	108	MPD2	C4	1	-0.15	12.011
1670	CB	108	MPD2	C5	1	-0.15	12.011
1671	HCMM	108	MPD2	H	1	0.15	1.0079
1672	HCMM	108	MPD2	H1	1	0.15	1.0079
1673	HCMM	108	MPD2	H2	1	0.15	1.0079
1674	HCMM	108	MPD2	H3	1	0.15	1.0079
1675	NC=O	108	MPD2	N	1	-0.547	14.0067
1676	HNCO	108	MPD2	H5	1	0.37	1.0079
1677	NC=O	108	MPD2	N1	1	-0.547	14.0067
1678	HNCO	108	MPD2	H7	1	0.37	1.0079
1679	CB	109	TMC2	C1	1	0.0862	12.011
1680	CB	109	TMC2	C2	1	-0.15	12.011
1681	CB	109	TMC2	C3	1	0.0862	12.011
1682	CB	109	TMC2	C4	1	-0.15	12.011
1683	CB	109	TMC2	C5	1	0.0862	12.011
1684	CB	109	TMC2	C6	1	-0.15	12.011
1685	C=O	109	TMC2	C	1	0.5438	12.011
1686	O=C	109	TMC2	O	1	-0.57	15.9994
1687	HCMM	109	TMC2	H	1	0.15	1.0079
1688	HCMM	109	TMC2	H1	1	0.15	1.0079
1689	HCMM	109	TMC2	H2	1	0.15	1.0079
1690	C=O	109	TMC2	C7	1	0.5438	12.011
1691	C=O	109	TMC2	C8	1	0.6338	12.011
1692	O=C	109	TMC2	O1	1	-0.57	15.9994
1693	O=C	109	TMC2	O2	1	-0.57	15.9994
1694	OR	109	TMC2	O5	1	-0.65	15.9994
1695	HOCO	109	TMC2	H5	1	0.5	1.0079
1696	CB	110	MPD2	C	1	-0.15	12.011
1697	CB	110	MPD2	C1	1	0.117	12.011
1698	CB	110	MPD2	C2	1	-0.15	12.011
1699	CB	110	MPD2	C3	1	0.117	12.011
1700	CB	110	MPD2	C4	1	-0.15	12.011
1701	CB	110	MPD2	C5	1	-0.15	12.011
1702	HCMM	110	MPD2	H	1	0.15	1.0079
1703	HCMM	110	MPD2	H1	1	0.15	1.0079
1704	HCMM	110	MPD2	H2	1	0.15	1.0079
1705	HCMM	110	MPD2	H3	1	0.15	1.0079
1706	NC=O	110	MPD2	N	1	-0.547	14.0067
1707	HNCO	110	MPD2	H5	1	0.37	1.0079
1708	NC=O	110	MPD2	N1	1	-0.547	14.0067
1709	HNCO	110	MPD2	H7	1	0.37	1.0079
1710	CB	111	TMC2	C1	1	0.0862	12.011
1711	CB	111	TMC2	C2	1	-0.15	12.011
1712	CB	111	TMC2	C3	1	0.0862	12.011
1713	CB	111	TMC2	C4	1	-0.15	12.011
1714	CB	111	TMC2	C5	1	0.0862	12.011
1715	CB	111	TMC2	C6	1	-0.15	12.011
1716	C=O	111	TMC2	C	1	0.5438	12.011
1717	O=C	111	TMC2	O	1	-0.57	15.9994
1718	HCMM	111	TMC2	H	1	0.15	1.0079
1719	HCMM	111	TMC2	H1	1	0.15	1.0079
1720	HCMM	111	TMC2	H2	1	0.15	1.0079
1721	C=O	111	TMC2	C7	1	0.5438	12.011
1722	C=O	111	TMC2	C8	1	0.6338	12.011
1723	O=C	111	TMC2	O1	1	-0.57	15.9994
1724	O=C	111	TMC2	O2	1	-0.57	15.9994
1725	OR	111	TMC2	O5	1	-0.65	15.9994
1726	HOCO	111	TMC2	H5	1	0.5	1.0079
1727	CB	112	MPD2	C	1	-0.15	12.011
1728	CB	112	MPD2	C1	1	0.117	12.011
1729	CB	112	MPD2	C2	1	-0.15	12.011
1730	CB	112	MPD2	C3	1	0.117	12.011
1731	CB	112	MPD2	C4	1	-0.15	12.011
1732	CB	112	MPD2	C5	1	-0.15	12.011
1733	HCMM	112	MPD2	H	1	0.15	1.0079
1734	HCMM	112	MPD2	H1	1	0.15	1.0079
1735	HCMM	112	MPD2	H2	1	0.15	1.0079
1736	HCMM	112	MPD2	H3	1	0.15	1.0079
1737	NC=O	112	MPD2	N	1	-0.547	14.0067
1738	HNCO	112	MPD2	H5	1	0.37	1.0079
1739	NC=O	112	MPD2	N1	1	-0.547	14.0067
1740	HNCO	112	MPD2	H7	1	0.37	1.0079
1741	CB	113	TMC2	C1	1	0.0862	12.011
1742	CB	113	TMC2	C2	1	-0.15	12.011
1743	CB	113	TMC2	C3	1	0.0862	12.011
1744	CB	113	TMC2	C4	1	-0.15	12.011
1745	CB	113	TMC2	C5	1	0.0862	12.011
1746	CB	113	TMC2	C6	1	-0.15	12.011
1747	C=O	113	TMC2	C	1	0.5438	12.011
1748	O=C	113	TMC2	O	1	-0.57	15.9994
1749	HCMM	113	TMC2	H	1	0.15	1.0079
1750	HCMM	113	TMC2	H1	1	0.15	1.0079
1751	HCMM	113	TMC2	H2	1	0.15	1.0079
1752	C=O	113	TMC2	C7	1	0.5438	12.011
1753	C=O	113	TMC2	C8	1	0.6338	12.011
1754	O=C	113	TMC2	O1	1	-0.57	15.9994
1755	O=C	113	TMC2	O2	1	-0.57	15.9994
1756	OR	113	TMC2	O5	1	-0.65	15.9994
1757	HOCO	113	TMC2	H5	1	0.5	1.0079
1758	CB	114	MPD2	C	1	-0.15	12.011
1759	CB	114	MPD2	C1	1	0.117	12.011
1760	CB	114	MPD2	C2	1	-0.15	12.011
1761	CB	114	MPD2	C3	1	0.117	12.011
1762	CB	114	MPD2	C4	1	-0.15	12.011
1763	CB	114	MPD2	C5	1	-0.15	12.011
1764	HCMM	114	MPD2	H	1	0.15	1.0079
1765	HCMM	114	MPD2	H1	1	0.15	1.0079
1766	HCMM	114	MPD2	H2	1	0.15	1.0079
1767	HCMM	114	MPD2	H3	1	0.15	1.0079
1768	NC=O	114	MPD2	N	1	-0.547	14.0067
1769	HNCO	114	MPD2	H5	1	0.37	1.0079
1770	NC=O	114	MPD2	N1	1	-0.547	14.0067
1771	HNCO	114	MPD2	H7	1	0.37	1.0079
1772	CB	115	TMC2	C1	1	0.0862	12.011
1773	CB	115	TMC2	C2	1	-0.15	12.011
1774	CB	115	TMC2	C3	1	0.0862	12.011
1775	CB	115	TMC2	C4	1	-0.15	12.011
1776	CB	115	TMC2	C5	1	0.0862	12.011
1777	CB	115	TMC2	C6	1	-0.15	12.011
1778	C=O	115	TMC2	C	1	0.5438	12.011
1779	O=C	115	TMC2	O	1	-0.57	15.9994
1780	HCMM	115	TMC2	H	1	0.15	1.0079
1781	HCMM	115	TMC2	H1	1	0.15	1.0079
1782	HCMM	115	TMC2	H2	1	0.15	1.0079
1783	C=O	115	TMC2	C7	1	0.5438	12.011
1784	C=O	115	TMC2	C8	1	0.6338	12.011
1785	O=C	115	TMC2	O1	1	-0.57	15.9994
1786	O=C	115	TMC2	O2	1	-0.57	15.9994
1787	OR	115	TMC2	O5	1	-0.65	15.9994
1788	HOCO	115	TMC2	H5	1	0.5	1.0079
1789	CB	116	MPD2	C	1	-0.15	12.011
1790	CB	116	MPD2	C1	1	0.117	12.011
1791	CB	116	MPD2	C2	1	-0.15	12.011
1792	CB	116	MPD2	C3	1	0.117	12.011
1793	CB	116	MPD2	C4	1	-0.15	12.011
1794	CB	116	MPD2	C5	1	-0.15	12.011
1795	HCMM	116	MPD2	H	1	0.15	1.0079
1796	HCMM	116	MPD2	H1	1	0.15	1.0079
1797	HCMM	116	MPD2	H2	1	0.15	1.0079
1798	HCMM	116	MPD2	H3	1	0.15	1.0079
1799	NC=O	116	MPD2	N	1	-0.547	14.0067
1800	HNCO	116	MPD2	H5	1	0.37	1.0079
1801	NC=O	116	MPD2	N1	1	-0.547	14.0067
1802	HNCO	116	MPD2	H7	1	0.37	1.0079
1803	CB	117	TMC2	C1	1	0.0862	12.011
1804	CB	117	TMC2	C2	1	-0.15	12.011
1805	CB	117	TMC2	C3	1	0.0862	12.011
1806	CB	117	TMC2	C4	1	-0.15	12.011
1807	CB	117	TMC2	C5	1	0.0862	12.011
1808	CB	117	TMC2	C6	1	-0.15	12.011
1809	C=O	117	TMC2	C	1	0.5438	12.011
1810	O=C	117	TMC2	O	1	-0.57	15.9994
1811	HCMM	117	TMC2	H	1	0.15	1.0079
1812	HCMM	117	TMC2	H1	1	0.15	1.0079
1813	HCMM	117	TMC2	H2	1	0.15	1.0079
1814	C=O	117	TMC2	C7	1	0.5438	12.011
1815	C=O	117	TMC2	C8	1	0.6338	12.011
1816	O=C	117	TMC2	O1	1	-0.57	15.9994
1817	O=C	117	TMC2	O2	1	-0.57	15.9994
1818	OR	117	TMC2	O5	1	-0.65	15.9994
1819	HOCO	117	TMC2	H5	1	0.5	1.0079
1820	CB	118	MPD2	C	1	-0.15	12.011
1821	CB	118	MPD2	C1	1	0.117	12.011
1822	CB	118	MPD2	C2	1	-0.15	12.011
1823	CB	118	MPD2	C3	1	0.117	12.011
1824	CB	118	MPD2	C4	1	-0.15	12.011
1825	CB	118	MPD2	C5	1	-0.15	12.011
1826	HCMM	118	MPD2	H	1	0.15	1.0079
1827	HCMM	118	MPD2	H1	1	0.15	1.0079
1828	HCMM	118	MPD2	H2	1	0.15	1.0079
1829	HCMM	118	MPD2	H3	1	0.15	1.0079
1830	NC=O	118	MPD2	N	1	-0.547	14.0067
1831	HNCO	118	MPD2	H5	1	0.37	1.0079
1832	NC=O	118	MPD2	N1	1	-0.547	14.0067
1833	HNCO	118	MPD2	H7	1	0.37	1.0079
1834	CB	119	MPD2	C	1	-0.15	12.011
1835	CB	119	MPD2	C1	1	0.117	12.011
1836	CB	119	MPD2	C2	1	-0.15	12.011
1837	CB	119	MPD2	C3	1	0.117	12.011
1838	CB	119	MPD2	C4	1	-0.15	12.011
1839	CB	119	MPD2	C5	1	-0.15	12.011
1840	HCMM	119	MPD2	H	1	0.15	1.0079
1841	HCMM	119	MPD2	H1	1	0.15	1.0079
1842	HCMM	119	MPD2	H2	1	0.15	1.0079
1843	HCMM	119	MPD2	H3	1	0.15	1.0079
1844	NC=O	119	MPD2	N	1	-0.547	14.0067
1845	HNCO	119	MPD2	H5	1	0.37	1.0079
1846	NC=O	119	MPD2	N1	1	-0.547	14.0067
1847	HNCO	119	MPD2	H7	1	0.37	1.0079
1848	C=O	120	TCq2	C1	1	0.5438	12.011
1849	O=C	120	TCq2	O2	1	-0.57	15.9994
1850	CB	120	TCq2	C2	1	0.0862	12.011
1851	CB	120	TCq2	C3	1	-0.15	12.011
1852	CB	120	TCq2	C4	1	-0.179	12.011
1853	CB	120	TCq2	C5	1	-0.15	12.011
1854	CB	120	TCq2	C6	1	0.0862	12.011
1855	CB	120	TCq2	C7	1	-0.15	12.011
1856	C=O	120	TCq2	C8	1	0.5438	12.011
1857	O=C	120	TCq2	O4	1	-0.57	15.9994
1858	CO2M	120	TCq2	C9	1	0.979	12.011
1859	O2CM	120	TCq2	O5	1	-0.9	15.9994
1860	O2CM	120	TCq2	O6	1	-0.9	15.9994
1861	HCMM	120	TCq2	H2	1	0.15	1.0079
1862	HCMM	120	TCq2	H3	1	0.15	1.0079
1863	HCMM	120	TCq2	H4	1	0.15	1.0079
1864	CB	121	TMC2	C1	1	0.0862	12.011
1865	CB	121	TMC2	C2	1	-0.15	12.011
1866	CB	121	TMC2	C3	1	0.0862	12.011
1867	CB	121	TMC2	C4	1	-0.15	12.011
1868	CB	121	TMC2	C5	1	0.0862	12.011
1869	CB	121	TMC2	C6	1	-0.15	12.011
1870	C=O	121	TMC2	C	1	0.5438	12.011
1871	O=C	121	TMC2	O	1	-0.57	15.9994
1872	HCMM	121	TMC2	H	1	0.15	1.0079
1873	HCMM	121	TMC2	H1	1	0.15	1.0079
1874	HCMM	121	TMC2	H2	1	0.15	1.0079
1875	C=O	121	TMC2	C7	1	0.5438	12.011
1876	C=O	121	TMC2	C8	1	0.6338	12.011
1877	O=C	121	TMC2	O1	1	-0.57	15.9994
1878	O=C	121	TMC2	O2	1	-0.57	15.9994
1879	OR	121	TMC2	O5	1	-0.65	15.9994
1880	HOCO	121	TMC2	H5	1	0.5	1.0079
1881	CB	122	MPD2	C	1	-0.15	12.011
1882	CB	122	MPD2	C1	1	0.117	12.011
1883	CB	122	MPD2	C2	1	-0.15	12.011
1884	CB	122	MPD2	C3	1	0.117	12.011
1885	CB	122	MPD2	C4	1	-0.15	12.011
1886	CB	122	MPD2	C5	1	-0.15	12.011
1887	HCMM	122	MPD2	H	1	0.15	1.0079
1888	HCMM	122	MPD2	H1	1	0.15	1.0079
1889	HCMM	122	MPD2	H2	1	0.15	1.0079
1890	HCMM	122	MPD2	H3	1	0.15	1.0079
1891	NC=O	122	MPD2	N	1	-0.547	14.0067
1892	HNCO	122	MPD2	H5	1	0.37	1.0079
1893	NC=O	122	MPD2	N1	1	-0.547	14.0067
1894	HNCO	122	MPD2	H7	1	0.37	1.0079
1895	CB	123	TMC2	C1	1	0.0862	12.011
1896	CB	123	TMC2	C2	1	-0.15	12.011
1897	CB	123	TMC2	C3	1	0.0862	12.011
1898	CB	123	TMC2	C4	1	-0.15	12.011
1899	CB	123	TMC2	C5	1	0.0862	12.011
1900	CB	123	TMC2	C6	1	-0.15	12.011
1901	C=O	123	TMC2	C	1	0.5438	12.011
1902	O=C	123	TMC2	O	1	-0.57	15.9994
1903	HCMM	123	TMC2	H	1	0.15	1.0079
1904	HCMM	123	TMC2	H1	1	0.15	1.0079
1905	HCMM	123	TMC2	H2	1	0.15	1.0079
1906	C=O	123	TMC2	C7	1	0.5438	12.011
1907	C=O	123	TMC2	C8	1	0.6338	12.011
1908	O=C	123	TMC2	O1	1	-0.57	15.9994
1909	O=C	123	TMC2	O2	1	-0.57	15.9994
1910	OR	123	TMC2	O5	1	-0.65	15.9994
1911	HOCO	123	TMC2	H5	1	0.5	1.0079
1912	CB	124	MPD2	C	1	-0.15	12.011
1913	CB	124	MPD2	C1	1	0.117	12.011
1914	CB	124	MPD2	C2	1	-0.15	12.011
1915	CB	124	MPD2	C3	1	0.117	12.011
1916	CB	124	MPD2	C4	1	-0.15	12.011
1917	CB	124	MPD2	C5	1	-0.15	12.011
1918	HCMM	124	MPD2	H	1	0.15	1.0079
1919	HCMM	124	MPD2	H1	1	0.15	1.0079
1920	HCMM	124	MPD2	H2	1	0.15	1.0079
1921	HCMM	124	MPD2	H3	1	0.15	1.0079
1922	NC=O	124	MPD2	N	1	-0.547	14.0067
1923	HNCO	124	MPD2	H5	1	0.37	1.0079
1924	NC=O	124	MPD2	N1	1	-0.547	14.0067
1925	HNCO	124	MPD2	H7	1	0.37	1.0079
1926	CB	125	TMC2	C1	1	0.0862	12.011
1927	CB	125	TMC2	C2	1	-0.15	12.011
1928	CB	125	TMC2	C3	1	0.0862	12.011
1929	CB	125	TMC2	C4	1	-0.15	12.011
1930	CB	125	TMC2	C5	1	0.0862	12.011
1931	CB	125	TMC2	C6	1	-0.15	12.011
1932	C=O	125	TMC2	C	1	0.5438	12.011
1933	O=C	125	TMC2	O	1	-0.57	15.9994
1934	HCMM	125	TMC2	H	1	0.15	1.0079
1935	HCMM	125	TMC2	H1	1	0.15	1.0079
1936	HCMM	125	TMC2	H2	1	0.15	1.0079
1937	C=O	125	TMC2	C7	1	0.5438	12.011
1938	C=O	125	TMC2	C8	1	0.6338	12.011
1939	O=C	125	TMC2	O1	1	-0.57	15.9994
1940	O=C	125	TMC2	O2	1	-0.57	15.9994
1941	OR	125	TMC2	O5	1	-0.65	15.9994
1942	HOCO	125	TMC2	H5	1	0.5	1.0079
1943	CB	126	MPD1	C	1	-0.15	12.011
1944	CB	126	MPD1	C1	1	0.1	12.011
1945	CB	126	MPD1	C2	1	-0.15	12.011
1946	CB	126	MPD1	C3	1	0.117	12.011
1947	CB	126	MPD1	C4	1	-0.15	12.011
1948	CB	126	MPD1	C5	1	-0.15	12.011
1949	HCMM	126	MPD1	H	1	0.15	1.0079
1950	HCMM	126	MPD1	H1	1	0.15	1.0079
1951	HCMM	126	MPD1	H2	1	0.15	1.0079
1952	HCMM	126	MPD1	H3	1	0.15	1.0079
1953	NC=O	126	MPD1	N	1	-0.547	14.0067
1954	HNCO	126	MPD1	H5	1	0.37	1.0079
1955	NC=C	126	MPD1	N1	1	-0.9	14.0067
1956	HNCO	126	MPD1	H6	1	0.4	1.0079
1957	HNCO	126	MPD1	H7	1	0.4	1.0079
1958	CB	127	TMC2	C1	1	0.0862	12.011
1959	CB	127	TMC2	C2	1	-0.15	12.011
1960	CB	127	TMC2	C3	1	0.0862	12.011
1961	CB	127	TMC2	C4	1	-0.15	12.011
1962	CB	127	TMC2	C5	1	0.0862	12.011
1963	CB	127	TMC2	C6	1	-0.15	12.011
1964	C=O	127	TMC2	C	1	0.5438	12.011
1965	O=C	127	TMC2	O	1	-0.57	15.9994
1966	HCMM	127	TMC2	H	1	0.15	1.0079
1967	HCMM	127	TMC2	H1	1	0.15	1.0079
1968	HCMM	127	TMC2	H2	1	0.15	1.0079
1969	C=O	127	TMC2	C7	1	0.5438	12.011
1970	C=O	127	TMC2	C8	1	0.6338	12.011
1971	O=C	127	TMC2	O1	1	-0.57	15.9994
1972	O=C	127	TMC2	O2	1	-0.57	15.9994
1973	OR	127	TMC2	O5	1	-0.65	15.9994
1974	HOCO	127	TMC2	H5	1	0.5	1.0079
1975	CB	128	MPD2	C	1	-0.15	12.011
1976	CB	128	MPD2	C1	1	0.117	12.011
1977	CB	128	MPD2	C2	1	-0.15	12.011
1978	CB	128	MPD2	C3	1	0.117	12.011
1979	CB	128	MPD2	C4	1	-0.15	12.011
1980	CB	128	MPD2	C5	1	-0.15	12.011
1981	HCMM	128	MPD2	H	1	0.15	1.0079
1982	HCMM	128	MPD2	H1	1	0.15	1.0079
1983	HCMM	128	MPD2	H2	1	0.15	1.0079
1984	HCMM	128	MPD2	H3	1	0.15	1.0079
1985	NC=O	128	MPD2	N	1	-0.547	14.0067
1986	HNCO	128	MPD2	H5	1	0.37	1.0079
1987	NC=O	128	MPD2	N1	1	-0.547	14.0067
1988	HNCO	128	MPD2	H7	1	0.37	1.0079
1989	CB	129	TMC2	C1	1	0.0862	12.011
1990	CB	129	TMC2	C2	1	-0.15	12.011
1991	CB	129	TMC2	C3	1	0.0862	12.011
1992	CB	129	TMC2	C4	1	-0.15	12.011
1993	CB	129	TMC2	C5	1	0.0862	12.011
1994	CB	129	TMC2	C6	1	-0.15	12.011
1995	C=O	129	TMC2	C	1	0.5438	12.011
1996	O=C	129	TMC2	O	1	-0.57	15.9994
1997	HCMM	129	TMC2	H	1	0.15	1.0079
1998	HCMM	129	TMC2	H1	1	0.15	1.0079
1999	HCMM	129	TMC2	H2	1	0.15	1.0079
2000	C=O	129	TMC2	C7	1	0.5438	12.011
2001	C=O	129	TMC2	C8	1	0.6338	12.011
2002	O=C	129	TMC2	O1	1	-0.57	15.9994
2003	O=C	129	TMC2	O2	1	-0.57	15.9994
2004	OR	129	TMC2	O5	1	-0.65	15.9994
2005	HOCO	129	TMC2	H5	1	0.5	1.0079
2006	CB	130	MPD2	C	1	-0.15	12.011
2007	CB	130	MPD2	C1	1	0.117	12.011
2008	CB	130	MPD2	C2	1	-0.15	12.011
2009	CB	130	MPD2	C3	1	0.117	12.011
2010	CB	130	MPD2	C4	1	-0.15	12.011
2011	CB	130	MPD2	C5	1	-0.15	12.011
2012	HCMM	130	MPD2	H	1	0.15	1.0079
2013	HCMM	130	MPD2	H1	1	0.15	1.0079
2014	HCMM	130	MPD2	H2	1	0.15	1.0079
2015	HCMM	130	MPD2	H3	1	0.15	1.0079
2016	NC=O	130	MPD2	N	1	-0.547	14.0067
2017	HNCO	130	MPD2	H5	1	0.37	1.0079
2018	NC=O	130	MPD2	N1	1	-0.547	14.0067
2019	HNCO	130	MPD2	H7	1	0.37	1.0079
2020	CB	131	TMC2	C1	1	0.0862	12.011
2021	CB	131	TMC2	C2	1	-0.15	12.011
2022	CB	131	TMC2	C3	1	0.0862	12.011
2023	CB	131	TMC2	C4	1	-0.15	12.011
2024	CB	131	TMC2	C5	1	0.0862	12.011
2025	CB	131	TMC2	C6	1	-0.15	12.011
2026	C=O	131	TMC2	C	1	0.5438	12.011
2027	O=C	131	TMC2	O	1	-0.57	15.9994
2028	HCMM	131	TMC2	H	1	0.15	1.0079
2029	HCMM	131	TMC2	H1	1	0.15	1.0079
2030	HCMM	131	TMC2	H2	1	0.15	1.0079
2031	C=O	131	TMC2	C7	1	0.5438	12.011
2032	C=O	131	TMC2	C8	1	0.6338	12.011
2033	O=C	131	TMC2	O1	1	-0.57	15.9994
2034	O=C	131	TMC2	O2	1	-0.57	15.9994
2035	OR	131	TMC2	O5	1	-0.65	15.9994
2036	HOCO	131	TMC2	H5	1	0.5	1.0079
2037	CB	132	MPD2	C	1	-0.15	12.011
2038	CB	132	MPD2	C1	1	0.117	12.011
2039	CB	132	MPD2	C2	1	-0.15	12.011
2040	CB	132	MPD2	C3	1	0.117	12.011
2041	CB	132	MPD2	C4	1	-0.15	12.011
2042	CB	132	MPD2	C5	1	-0.15	12.011
2043	HCMM	132	MPD2	H	1	0.15	1.0079
2044	HCMM	132	MPD2	H1	1	0.15	1.0079
2045	HCMM	132	MPD2	H2	1	0.15	1.0079
2046	HCMM	132	MPD2	H3	1	0.15	1.0079
2047	NC=O	132	MPD2	N	1	-0.547	14.0067
2048	HNCO	132	MPD2	H5	1	0.37	1.0079
2049	NC=O	132	MPD2	N1	1	-0.547	14.0067
2050	HNCO	132	MPD2	H7	1	0.37	1.0079
2051	CB	133	MPD2	C	1	-0.15	12.011
2052	CB	133	MPD2	C1	1	0.117	12.011
2053	CB	133	MPD2	C2	1	-0.15	12.011
2054	CB	133	MPD2	C3	1	0.117	12.011
2055	CB	133	MPD2	C4	1	-0.15	12.011
2056	CB	133	MPD2	C5	1	-0.15	12.011
2057	HCMM	133	MPD2	H	1	0.15	1.0079
2058	HCMM	133	MPD2	H1	1	0.15	1.0079
2059	HCMM	133	MPD2	H2	1	0.15	1.0079
2060	HCMM	133	MPD2	H3	1	0.15	1.0079
2061	NC=O	133	MPD2	N	1	-0.547	14.0067
2062	HNCO	133	MPD2	H5	1	0.37	1.0079
2063	NC=O	133	MPD2	N1	1	-0.547	14.0067
2064	HNCO	133	MPD2	H7	1	0.37	1.0079
2065	C=O	134	TCq2	C1	1	0.5438	12.011
2066	O=C	134	TCq2	O2	1	-0.57	15.9994
2067	CB	134	TCq2	C2	1	0.0862	12.011
2068	CB	134	TCq2	C3	1	-0.15	12.011
2069	CB	134	TCq2	C4	1	-0.179	12.011
2070	CB	134	TCq2	C5	1	-0.15	12.011
2071	CB	134	TCq2	C6	1	0.0862	12.011
2072	CB	134	TCq2	C7	1	-0.15	12.011
2073	C=O	134	TCq2	C8	1	0.5438	12.011
2074	O=C	134	TCq2	O4	1	-0.57	15.9994
2075	CO2M	134	TCq2	C9	1	0.979	12.011
2076	O2CM	134	TCq2	O5	1	-0.9	15.9994
2077	O2CM	134	TCq2	O6	1	-0.9	15.9994
2078	HCMM	134	TCq2	H2	1	0.15	1.0079
2079	HCMM	134	TCq2	H3	1	0.15	1.0079
2080	HCMM	134	TCq2	H4	1	0.15	1.0079
2081	CB	135	TMC2	C1	1	0.0862	12.011
2082	CB	135	TMC2	C2	1	-0.15	12.011
2083	CB	135	TMC2	C3	1	0.0862	12.011
2084	CB	135	TMC2	C4	1	-0.15	12.011
2085	CB	135	TMC2	C5	1	0.0862	12.011
2086	CB	135	TMC2	C6	1	-0.15	12.011
2087	C=O	135	TMC2	C	1	0.5438	12.011
2088	O=C	135	TMC2	O	1	-0.57	15.9994
2089	HCMM	135	TMC2	H	1	0.15	1.0079
2090	HCMM	135	TMC2	H1	1	0.15	1.0079
2091	HCMM	135	TMC2	H2	1	0.15	1.0079
2092	C=O	135	TMC2	C7	1	0.5438	12.011
2093	C=O	135	TMC2	C8	1	0.6338	12.011
2094	O=C	135	TMC2	O1	1	-0.57	15.9994
2095	O=C	135	TMC2	O2	1	-0.57	15.9994
2096	OR	135	TMC2	O5	1	-0.65	15.9994
2097	HOCO	135	TMC2	H5	1	0.5	1.0079
2098	CB	136	MPD2	C	1	-0.15	12.011
2099	CB	136	MPD2	C1	1	0.117	12.011
2100	CB	136	MPD2	C2	1	-0.15	12.011
2101	CB	136	MPD2	C3	1	0.117	12.011
2102	CB	136	MPD2	C4	1	-0.15	12.011
2103	CB	136	MPD2	C5	1	-0.15	12.011
2104	HCMM	136	MPD2	H	1	0.15	1.0079
2105	HCMM	136	MPD2	H1	1	0.15	1.0079
2106	HCMM	136	MPD2	H2	1	0.15	1.0079
2107	HCMM	136	MPD2	H3	1	0.15	1.0079
2108	NC=O	136	MPD2	N	1	-0.547	14.0067
2109	HNCO	136	MPD2	H5	1	0.37	1.0079
2110	NC=O	136	MPD2	N1	1	-0.547	14.0067
2111	HNCO	136	MPD2	H7	1	0.37	1.0079
2112	CB	137	TMC2	C1	1	0.0862	12.011
2113	CB	137	TMC2	C2	1	-0.15	12.011
2114	CB	137	TMC2	C3	1	0.0862	12.011
2115	CB	137	TMC2	C4	1	-0.15	12.011
2116	CB	137	TMC2	C5	1	0.0862	12.011
2117	CB	137	TMC2	C6	1	-0.15	12.011
2118	C=O	137	TMC2	C	1	0.5438	12.011
2119	O=C	137	TMC2	O	1	-0.57	15.9994
2120	HCMM	137	TMC2	H	1	0.15	1.0079
2121	HCMM	137	TMC2	H1	1	0.15	1.0079
2122	HCMM	137	TMC2	H2	1	0.15	1.0079
2123	C=O	137	TMC2	C7	1	0.5438	12.011
2124	C=O	137	TMC2	C8	1	0.6338	12.011
2125	O=C	137	TMC2	O1	1	-0.57	15.9994
2126	O=C	137	TMC2	O2	1	-0.57	15.9994
2127	OR	137	TMC2	O5	1	-0.65	15.9994
2128	HOCO	137	TMC2	H5	1	0.5	1.0079
2129	CB	138	MPD2	C	1	-0.15	12.011
2130	CB	138	MPD2	C1	1	0.117	12.011
2131	CB	138	MPD2	C2	1	-0.15	12.011
2132	CB	138	MPD2	C3	1	0.117	12.011
2133	CB	138	MPD2	C4	1	-0.15	12.011
2134	CB	138	MPD2	C5	1	-0.15	12.011
2135	HCMM	138	MPD2	H	1	0.15	1.0079
2136	HCMM	138	MPD2	H1	1	0.15	1.0079
2137	HCMM	138	MPD2	H2	1	0.15	1.0079
2138	HCMM	138	MPD2	H3	1	0.15	1.0079
2139	NC=O	138	MPD2	N	1	-0.547	14.0067
2140	HNCO	138	MPD2	H5	1	0.37	1.0079
2141	NC=O	138	MPD2	N1	1	-0.547	14.0067
2142	HNCO	138	MPD2	H7	1	0.37	1.0079
2143	CB	139	TMC2	C1	1	0.0862	12.011
2144	CB	139	TMC2	C2	1	-0.15	12.011
2145	CB	139	TMC2	C3	1	0.0862	12.011
2146	CB	139	TMC2	C4	1	-0.15	12.011
2147	CB	139	TMC2	C5	1	0.0862	12.011
2148	CB	139	TMC2	C6	1	-0.15	12.011
2149	C=O	139	TMC2	C	1	0.5438	12.011
2150	O=C	139	TMC2	O	1	-0.57	15.9994
2151	HCMM	139	TMC2	H	1	0.15	1.0079
2152	HCMM	139	TMC2	H1	1	0.15	1.0079
2153	HCMM	139	TMC2	H2	1	0.15	1.0079
2154	C=O	139	TMC2	C7	1	0.5438	12.011
2155	C=O	139	TMC2	C8	1	0.6338	12.011
2156	O=C	139	TMC2	O1	1	-0.57	15.9994
2157	O=C	139	TMC2	O2	1	-0.57	15.9994
2158	OR	139	TMC2	O5	1	-0.65	15.9994
2159	HOCO	139	TMC2	H5	1	0.5	1.0079
2160	CB	140	MPD2	C	1	-0.15	12.011
2161	CB	140	MPD2	C1	1	0.117	12.011
2162	CB	140	MPD2	C2	1	-0.15	12.011
2163	CB	140	MPD2	C3	1	0.117	12.011
2164	CB	140	MPD2	C4	1	-0.15	12.011
2165	CB	140	MPD2	C5	1	-0.15	12.011
2166	HCMM	140	MPD2	H	1	0.15	1.0079
2167	HCMM	140	MPD2	H1	1	0.15	1.0079
2168	HCMM	140	MPD2	H2	1	0.15	1.0079
2169	HCMM	140	MPD2	H3	1	0.15	1.0079
2170	NC=O	140	MPD2	N	1	-0.547	14.0067
2171	HNCO	140	MPD2	H5	1	0.37	1.0079
2172	NC=O	140	MPD2	N1	1	-0.547	14.0067
2173	HNCO	140	MPD2	H7	1	0.37	1.0079
2174	CB	141	TMC2	C1	1	0.0862	12.011
2175	CB	141	TMC2	C2	1	-0.15	12.011
2176	CB	141	TMC2	C3	1	0.0862	12.011
2177	CB	141	TMC2	C4	1	-0.15	12.011
2178	CB	141	TMC2	C5	1	0.0862	12.011
2179	CB	141	TMC2	C6	1	-0.15	12.011
2180	C=O	141	TMC2	C	1	0.5438	12.011
2181	O=C	141	TMC2	O	1	-0.57	15.9994
2182	HCMM	141	TMC2	H	1	0.15	1.0079
2183	HCMM	141	TMC2	H1	1	0.15	1.0079
2184	HCMM	141	TMC2	H2	1	0.15	1.0079
2185	C=O	141	TMC2	C7	1	0.5438	12.011
2186	C=O	141	TMC2	C8	1	0.6338	12.011
2187	O=C	141	TMC2	O1	1	-0.57	15.9994
2188	O=C	141	TMC2	O2	1	-0.57	15.9994
2189	OR	141	TMC2	O5	1	-0.65	15.9994
2190	HOCO	141	TMC2	H5	1	0.5	1.0079
2191	CB	142	TMC2	C1	1	0.0862	12.011
2192	CB	142	TMC2	C2	1	-0.15	12.011
2193	CB	142	TMC2	C3	1	0.0862	12.011
2194	CB	142	TMC2	C4	1	-0.15	12.011
2195	CB	142	TMC2	C5	1	0.0862	12.011
2196	CB	142	TMC2	C6	1	-0.15	12.011
2197	C=O	142	TMC2	C	1	0.5438	12.011
2198	O=C	142	TMC2	O	1	-0.57	15.9994
2199	HCMM	142	TMC2	H	1	0.15	1.0079
2200	HCMM	142	TMC2	H1	1	0.15	1.0079
2201	HCMM	142	TMC2	H2	1	0.15	1.0079
2202	C=O	142	TMC2	C7	1	0.5438	12.011
2203	C=O	142	TMC2	C8	1	0.6338	12.011
2204	O=C	142	TMC2	O1	1	-0.57	15.9994
2205	O=C	142	TMC2	O2	1	-0.57	15.9994
2206	OR	142	TMC2	O5	1	-0.65	15.9994
2207	HOCO	142	TMC2	H5	1	0.5	1.0079
2208	CB	143	MPD2	C	1	-0.15	12.011
2209	CB	143	MPD2	C1	1	0.117	12.011
2210	CB	143	MPD2	C2	1	-0.15	12.011
2211	CB	143	MPD2	C3	1	0.117	12.011
2212	CB	143	MPD2	C4	1	-0.15	12.011
2213	CB	143	MPD2	C5	1	-0.15	12.011
2214	HCMM	143	MPD2	H	1	0.15	1.0079
2215	HCMM	143	MPD2	H1	1	0.15	1.0079
2216	HCMM	143	MPD2	H2	1	0.15	1.0079
2217	HCMM	143	MPD2	H3	1	0.15	1.0079
2218	NC=O	143	MPD2	N	1	-0.547	14.0067
2219	HNCO	143	MPD2	H5	1	0.37	1.0079
2220	NC=O	143	MPD2	N1	1	-0.547	14.0067
2221	HNCO	143	MPD2	H7	1	0.37	1.0079
2222	CB	144	TMC2	C1	1	0.0862	12.011
2223	CB	144	TMC2	C2	1	-0.15	12.011
2224	CB	144	TMC2	C3	1	0.0862	12.011
2225	CB	144	TMC2	C4	1	-0.15	12.011
2226	CB	144	TMC2	C5	1	0.0862	12.011
2227	CB	144	TMC2	C6	1	-0.15	12.011
2228	C=O	144	TMC2	C	1	0.5438	12.011
2229	O=C	144	TMC2	O	1	-0.57	15.9994
2230	HCMM	144	TMC2	H	1	0.15	1.0079
2231	HCMM	144	TMC2	H1	1	0.15	1.0079
2232	HCMM	144	TMC2	H2	1	0.15	1.0079
2233	C=O	144	TMC2	C7	1	0.5438	12.011
2234	C=O	144	TMC2	C8	1	0.6338	12.011
2235	O=C	144	TMC2	O1	1	-0.57	15.9994
2236	O=C	144	TMC2	O2	1	-0.57	15.9994
2237	OR	144	TMC2	O5	1	-0.65	15.9994
2238	HOCO	144	TMC2	H5	1	0.5	1.0079
2239	CB	145	MPD2	C	1	-0.15	12.011
2240	CB	145	MPD2	C1	1	0.117	12.011
2241	CB	145	MPD2	C2	1	-0.15	12.011
2242	CB	145	MPD2	C3	1	0.117	12.011
2243	CB	145	MPD2	C4	1	-0.15	12.011
2244	CB	145	MPD2	C5	1	-0.15	12.011
2245	HCMM	145	MPD2	H	1	0.15	1.0079
2246	HCMM	145	MPD2	H1	1	0.15	1.0079
2247	HCMM	145	MPD2	H2	1	0.15	1.0079
2248	HCMM	145	MPD2	H3	1	0.15	1.0079
2249	NC=O	145	MPD2	N	1	-0.547	14.0067
2250	HNCO	145	MPD2	H5	1	0.37	1.0079
2251	NC=O	145	MPD2	N1	1	-0.547	14.0067
2252	HNCO	145	MPD2	H7	1	0.37	1.0079
2253	CB	146	TMC2	C1	1	0.0862	12.011
2254	CB	146	TMC2	C2	1	-0.15	12.011
2255	CB	146	TMC2	C3	1	0.0862	12.011
2256	CB	146	TMC2	C4	1	-0.15	12.011
2257	CB	146	TMC2	C5	1	0.0862	12.011
2258	CB	146	TMC2	C6	1	-0.15	12.011
2259	C=O	146	TMC2	C	1	0.5438	12.011
2260	O=C	146	TMC2	O	1	-0.57	15.9994
2261	HCMM	146	TMC2	H	1	0.15	1.0079
2262	HCMM	146	TMC2	H1	1	0.15	1.0079
2263	HCMM	146	TMC2	H2	1	0.15	1.0079
2264	C=O	146	TMC2	C7	1	0.5438	12.011
2265	C=O	146	TMC2	C8	1	0.6338	12.011
2266	O=C	146	TMC2	O1	1	-0.57	15.9994
2267	O=C	146	TMC2	O2	1	-0.57	15.9994
2268	OR	146	TMC2	O5	1	-0.65	15.9994
2269	HOCO	146	TMC2	H5	1	0.5	1.0079
2270	CB	147	MPD2	C	1	-0.15	12.011
2271	CB	147	MPD2	C1	1	0.117	12.011
2272	CB	147	MPD2	C2	1	-0.15	12.011
2273	CB	147	MPD2	C3	1	0.117	12.011
2274	CB	147	MPD2	C4	1	-0.15	12.011
2275	CB	147	MPD2	C5	1	-0.15	12.011
2276	HCMM	147	MPD2	H	1	0.15	1.0079
2277	HCMM	147	MPD2	H1	1	0.15	1.0079
2278	HCMM	147	MPD2	H2	1	0.15	1.0079
2279	HCMM	147	MPD2	H3	1	0.15	1.0079
2280	NC=O	147	MPD2	N	1	-0.547	14.0067
2281	HNCO	147	MPD2	H5	1	0.37	1.0079
2282	NC=O	147	MPD2	N1	1	-0.547	14.0067
2283	HNCO	147	MPD2	H7	1	0.37	1.0079
2284	CB	148	MPD2	C	1	-0.15	12.011
2285	CB	148	MPD2	C1	1	0.117	12.011
2286	CB	148	MPD2	C2	1	-0.15	12.011
2287	CB	148	MPD2	C3	1	0.117	12.011
2288	CB	148	MPD2	C4	1	-0.15	12.011
2289	CB	148	MPD2	C5	1	-0.15	12.011
2290	HCMM	148	MPD2	H	1	0.15	1.0079
2291	HCMM	148	MPD2	H1	1	0.15	1.0079
2292	HCMM	148	MPD2	H2	1	0.15	1.0079
2293	HCMM	148	MPD2	H3	1	0.15	1.0079
2294	NC=O	148	MPD2	N	1	-0.547	14.0067
2295	HNCO	148	MPD2	H5	1	0.37	1.0079
2296	NC=O	148	MPD2	N1	1	-0.547	14.0067
2297	HNCO	148	MPD2	H7	1	0.37	1.0079
2298	C=O	149	TCq2	C1	1	0.5438	12.011
2299	O=C	149	TCq2	O2	1	-0.57	15.9994
2300	CB	149	TCq2	C2	1	0.0862	12.011
2301	CB	149	TCq2	C3	1	-0.15	12.011
2302	CB	149	TCq2	C4	1	-0.179	12.011
2303	CB	149	TCq2	C5	1	-0.15	12.011
2304	CB	149	TCq2	C6	1	0.0862	12.011
2305	CB	149	TCq2	C7	1	-0.15	12.011
2306	C=O	149	TCq2	C8	1	0.5438	12.011
2307	O=C	149	TCq2	O4	1	-0.57	15.9994
2308	CO2M	149	TCq2	C9	1	0.979	12.011
2309	O2CM	149	TCq2	O5	1	-0.9	15.9994
2310	O2CM	149	TCq2	O6	1	-0.9	15.9994
2311	HCMM	149	TCq2	H2	1	0.15	1.0079
2312	HCMM	149	TCq2	H3	1	0.15	1.0079
2313	HCMM	149	TCq2	H4	1	0.15	1.0079
2314	CB	150	TMC2	C1	1	0.0862	12.011
2315	CB	150	TMC2	C2	1	-0.15	12.011
2316	CB	150	TMC2	C3	1	0.0862	12.011
2317	CB	150	TMC2	C4	1	-0.15	12.011
2318	CB	150	TMC2	C5	1	0.0862	12.011
2319	CB	150	TMC2	C6	1	-0.15	12.011
2320	C=O	150	TMC2	C	1	0.5438	12.011
2321	O=C	150	TMC2	O	1	-0.57	15.9994
2322	HCMM	150	TMC2	H	1	0.15	1.0079
2323	HCMM	150	TMC2	H1	1	0.15	1.0079
2324	HCMM	150	TMC2	H2	1	0.15	1.0079
2325	C=O	150	TMC2	C7	1	0.5438	12.011
2326	C=O	150	TMC2	C8	1	0.6338	12.011
2327	O=C	150	TMC2	O1	1	-0.57	15.9994
2328	O=C	150	TMC2	O2	1	-0.57	15.9994
2329	OR	150	TMC2	O5	1	-0.65	15.9994
2330	HOCO	150	TMC2	H5	1	0.5	1.0079
2331	CB	151	MPD2	C	1	-0.15	12.011
2332	CB	151	MPD2	C1	1	0.117	12.011
2333	CB	151	MPD2	C2	1	-0.15	12.011
2334	CB	151	MPD2	C3	1	0.117	12.011
2335	CB	151	MPD2	C4	1	-0.15	12.011
2336	CB	151	MPD2	C5	1	-0.15	12.011
2337	HCMM	151	MPD2	H	1	0.15	1.0079
2338	HCMM	151	MPD2	H1	1	0.15	1.0079
2339	HCMM	151	MPD2	H2	1	0.15	1.0079
2340	HCMM	151	MPD2	H3	1	0.15	1.0079
2341	NC=O	151	MPD2	N	1	-0.547	14.0067
2342	HNCO	151	MPD2	H5	1	0.37	1.0079
2343	NC=O	151	MPD2	N1	1	-0.547	14.0067
2344	HNCO	151	MPD2	H7	1	0.37	1.0079
2345	CB	152	TMC2	C1	1	0.0862	12.011
2346	CB	152	TMC2	C2	1	-0.15	12.011
2347	CB	152	TMC2	C3	1	0.0862	12.011
2348	CB	152	TMC2	C4	1	-0.15	12.011
2349	CB	152	TMC2	C5	1	0.0862	12.011
2350	CB	152	TMC2	C6	1	-0.15	12.011
2351	C=O	152	TMC2	C	1	0.5438	12.011
2352	O=C	152	TMC2	O	1	-0.57	15.9994
2353	HCMM	152	TMC2	H	1	0.15	1.0079
2354	HCMM	152	TMC2	H1	1	0.15	1.0079
2355	HCMM	152	TMC2	H2	1	0.15	1.0079
2356	C=O	152	TMC2	C7	1	0.5438	12.011
2357	C=O	152	TMC2	C8	1	0.6338	12.011
2358	O=C	152	TMC2	O1	1	-0.57	15.9994
2359	O=C	152	TMC2	O2	1	-0.57	15.9994
2360	OR	152	TMC2	O5	1	-0.65	15.9994
2361	HOCO	152	TMC2	H5	1	0.5	1.0079
2362	CB	153	MPD2	C	1	-0.15	12.011
2363	CB	153	MPD2	C1	1	0.117	12.011
2364	CB	153	MPD2	C2	1	-0.15	12.011
2365	CB	153	MPD2	C3	1	0.117	12.011
2366	CB	153	MPD2	C4	1	-0.15	12.011
2367	CB	153	MPD2	C5	1	-0.15	12.011
2368	HCMM	153	MPD2	H	1	0.15	1.0079
2369	HCMM	153	MPD2	H1	1	0.15	1.0079
2370	HCMM	153	MPD2	H2	1	0.15	1.0079
2371	HCMM	153	MPD2	H3	1	0.15	1.0079
2372	NC=O	153	MPD2	N	1	-0.547	14.0067
2373	HNCO	153	MPD2	H5	1	0.37	1.0079
2374	NC=O	153	MPD2	N1	1	-0.547	14.0067
2375	HNCO	153	MPD2	H7	1	0.37	1.0079
2376	CB	154	TMC2	C1	1	0.0862	12.011
2377	CB	154	TMC2	C2	1	-0.15	12.011
2378	CB	154	TMC2	C3	1	0.0862	12.011
2379	CB	154	TMC2	C4	1	-0.15	12.011
2380	CB	154	TMC2	C5	1	0.0862	12.011
2381	CB	154	TMC2	C6	1	-0.15	12.011
2382	C=O	154	TMC2	C	1	0.5438	12.011
2383	O=C	154	TMC2	O	1	-0.57	15.9994
2384	HCMM	154	TMC2	H	1	0.15	1.0079
2385	HCMM	154	TMC2	H1	1	0.15	1.0079
2386	HCMM	154	TMC2	H2	1	0.15	1.0079
2387	C=O	154	TMC2	C7	1	0.5438	12.011
2388	C=O	154	TMC2	C8	1	0.6338	12.011
2389	O=C	154	TMC2	O1	1	-0.57	15.9994
2390	O=C	154	TMC2	O2	1	-0.57	15.9994
2391	OR	154	TMC2	O5	1	-0.65	15.9994
2392	HOCO	154	TMC2	H5	1	0.5	1.0079
2393	CB	155	MPD2	C	1	-0.15	12.011
2394	CB	155	MPD2	C1	1	0.117	12.011
2395	CB	155	MPD2	C2	1	-0.15	12.011
2396	CB	155	MPD2	C3	1	0.117	12.011
2397	CB	155	MPD2	C4	1	-0.15	12.011
2398	CB	155	MPD2	C5	1	-0.15	12.011
2399	HCMM	155	MPD2	H	1	0.15	1.0079
2400	HCMM	155	MPD2	H1	1	0.15	1.0079
2401	HCMM	155	MPD2	H2	1	0.15	1.0079
2402	HCMM	155	MPD2	H3	1	0.15	1.0079
2403	NC=O	155	MPD2	N	1	-0.547	14.0067
2404	HNCO	155	MPD2	H5	1	0.37	1.0079
2405	NC=O	155	MPD2	N1	1	-0.547	14.0067
2406	HNCO	155	MPD2	H7	1	0.37	1.0079
2407	CB	156	TMC2	C1	1	0.0862	12.011
2408	CB	156	TMC2	C2	1	-0.15	12.011
2409	CB	156	TMC2	C3	1	0.0862	12.011
2410	CB	156	TMC2	C4	1	-0.15	12.011
2411	CB	156	TMC2	C5	1	0.0862	12.011
2412	CB	156	TMC2	C6	1	-0.15	12.011
2413	C=O	156	TMC2	C	1	0.5438	12.011
2414	O=C	156	TMC2	O	1	-0.57	15.9994
2415	HCMM	156	TMC2	H	1	0.15	1.0079
2416	HCMM	156	TMC2	H1	1	0.15	1.0079
2417	HCMM	156	TMC2	H2	1	0.15	1.0079
2418	C=O	156	TMC2	C7	1	0.5438	12.011
2419	C=O	156	TMC2	C8	1	0.6338	12.011
2420	O=C	156	TMC2	O1	1	-0.57	15.9994
2421	O=C	156	TMC2	O2	1	-0.57	15.9994
2422	OR	156	TMC2	O5	1	-0.65	15.9994
2423	HOCO	156	TMC2	H5	1	0.5	1.0079
2424	CB	157	MPD2	C	1	-0.15	12.011
2425	CB	157	MPD2	C1	1	0.117	12.011
2426	CB	157	MPD2	C2	1	-0.15	12.011
2427	CB	157	MPD2	C3	1	0.117	12.011
2428	CB	157	MPD2	C4	1	-0.15	12.011
2429	CB	157	MPD2	C5	1	-0.15	12.011
2430	HCMM	157	MPD2	H	1	0.15	1.0079
2431	HCMM	157	MPD2	H1	1	0.15	1.0079
2432	HCMM	157	MPD2	H2	1	0.15	1.0079
2433	HCMM	157	MPD2	H3	1	0.15	1.0079
2434	NC=O	157	MPD2	N	1	-0.547	14.0067
2435	HNCO	157	MPD2	H5	1	0.37	1.0079
2436	NC=O	157	MPD2	N1	1	-0.547	14.0067
2437	HNCO	157	MPD2	H7	1	0.37	1.0079
2438	CB	158	TMC2	C1	1	0.0862	12.011
2439	CB	158	TMC2	C2	1	-0.15	12.011
2440	CB	158	TMC2	C3	1	0.0862	12.011
2441	CB	158	TMC2	C4	1	-0.15	12.011
2442	CB	158	TMC2	C5	1	0.0862	12.011
2443	CB	158	TMC2	C6	1	-0.15	12.011
2444	C=O	158	TMC2	C	1	0.5438	12.011
2445	O=C	158	TMC2	O	1	-0.57	15.9994
2446	HCMM	158	TMC2	H	1	0.15	1.0079
2447	HCMM	158	TMC2	H1	1	0.15	1.0079
2448	HCMM	158	TMC2	H2	1	0.15	1.0079
2449	C=O	158	TMC2	C7	1	0.5438	12.011
2450	C=O	158	TMC2	C8	1	0.6338	12.011
2451	O=C	158	TMC2	O1	1	-0.57	15.9994
2452	O=C	158	TMC2	O2	1	-0.57	15.9994
2453	OR	158	TMC2	O5	1	-0.65	15.9994
2454	HOCO	158	TMC2	H5	1	0.5	1.0079
2455	CB	159	MPD2	C	1	-0.15	12.011
2456	CB	159	MPD2	C1	1	0.117	12.011
2457	CB	159	MPD2	C2	1	-0.15	12.011
2458	CB	159	MPD2	C3	1	0.117	12.011
2459	CB	159	MPD2	C4	1	-0.15	12.011
2460	CB	159	MPD2	C5	1	-0.15	12.011
2461	HCMM	159	MPD2	H	1	0.15	1.0079
2462	HCMM	159	MPD2	H1	1	0.15	1.0079
2463	HCMM	159	MPD2	H2	1	0.15	1.0079
2464	HCMM	159	MPD2	H3	1	0.15	1.0079
2465	NC=O	159	MPD2	N	1	-0.547	14.0067
2466	HNCO	159	MPD2	H5	1	0.37	1.0079
2467	NC=O	159	MPD2	N1	1	-0.547	14.0067
2468	HNCO	159	MPD2	H7	1	0.37	1.0079
2469	CB	160	TMC2	C1	1	0.0862	12.011
2470	CB	160	TMC2	C2	1	-0.15	12.011
2471	CB	160	TMC2	C3	1	0.0862	12.011
2472	CB	160	TMC2	C4	1	-0.15	12.011
2473	CB	160	TMC2	C5	1	0.0862	12.011
2474	CB	160	TMC2	C6	1	-0.15	12.011
2475	C=O	160	TMC2	C	1	0.5438	12.011
2476	O=C	160	TMC2	O	1	-0.57	15.9994
2477	HCMM	160	TMC2	H	1	0.15	1.0079
2478	HCMM	160	TMC2	H1	1	0.15	1.0079
2479	HCMM	160	TMC2	H2	1	0.15	1.0079
2480	C=O	160	TMC2	C7	1	0.5438	12.011
2481	C=O	160	TMC2	C8	1	0.6338	12.011
2482	O=C	160	TMC2	O1	1	-0.57	15.9994
2483	O=C	160	TMC2	O2	1	-0.57	15.9994
2484	OR	160	TMC2	O5	1	-0.65	15.9994
2485	HOCO	160	TMC2	H5	1	0.5	1.0079
2486	CB	161	MPD2	C	1	-0.15	12.011
2487	CB	161	MPD2	C1	1	0.117	12.011
2488	CB	161	MPD2	C2	1	-0.15	12.011
2489	CB	161	MPD2	C3	1	0.117	12.011
2490	CB	161	MPD2	C4	1	-0.15	12.011
2491	CB	161	MPD2	C5	1	-0.15	12.011
2492	HCMM	161	MPD2	H	1	0.15	1.0079
2493	HCMM	161	MPD2	H1	1	0.15	1.0079
2494	HCMM	161	MPD2	H2	1	0.15	1.0079
2495	HCMM	161	MPD2	H3	1	0.15	1.0079
2496	NC=O	161	MPD2	N	1	-0.547	14.0067
2497	HNCO	161	MPD2	H5	1	0.37	1.0079
2498	NC=O	161	MPD2	N1	1	-0.547	14.0067
2499	HNCO	161	MPD2	H7	1	0.37	1.0079
2500	CB	162	TMC2	C1	1	0.0862	12.011
2501	CB	162	TMC2	C2	1	-0.15	12.011
2502	CB	162	TMC2	C3	1	0.0862	12.011
2503	CB	162	TMC2	C4	1	-0.15	12.011
2504	CB	162	TMC2	C5	1	0.0862	12.011
2505	CB	162	TMC2	C6	1	-0.15	12.011
2506	C=O	162	TMC2	C	1	0.5438	12.011
2507	O=C	162	TMC2	O	1	-0.57	15.9994
2508	HCMM	162	TMC2	H	1	0.15	1.0079
2509	HCMM	162	TMC2	H1	1	0.15	1.0079
2510	HCMM	162	TMC2	H2	1	0.15	1.0079
2511	C=O	162	TMC2	C7	1	0.5438	12.011
2512	C=O	162	TMC2	C8	1	0.6338	12.011
2513	O=C	162	TMC2	O1	1	-0.57	15.9994
2514	O=C	162	TMC2	O2	1	-0.57	15.9994
2515	OR	162	TMC2	O5	1	-0.65	15.9994
2516	HOCO	162	TMC2	H5	1	0.5	1.0079
2517	CB	163	MPD2	C	1	-0.15	12.011
2518	CB	163	MPD2	C1	1	0.117	12.011
2519	CB	163	MPD2	C2	1	-0.15	12.011
2520	CB	163	MPD2	C3	1	0.117	12.011
2521	CB	163	MPD2	C4	1	-0.15	12.011
2522	CB	163	MPD2	C5	1	-0.15	12.011
2523	HCMM	163	MPD2	H	1	0.15	1.0079
2524	HCMM	163	MPD2	H1	1	0.15	1.0079
2525	HCMM	163	MPD2	H2	1	0.15	1.0079
2526	HCMM	163	MPD2	H3	1	0.15	1.0079
2527	NC=O	163	MPD2	N	1	-0.547	14.0067
2528	HNCO	163	MPD2	H5	1	0.37	1.0079
2529	NC=O	163	MPD2	N1	1	-0.547	14.0067
2530	HNCO	163	MPD2	H7	1	0.37	1.0079
2531	CB	164	TMC2	C1	1	0.0862	12.011
2532	CB	164	TMC2	C2	1	-0.15	12.011
2533	CB	164	TMC2	C3	1	0.0862	12.011
2534	CB	164	TMC2	C4	1	-0.15	12.011
2535	CB	164	TMC2	C5	1	0.0862	12.011
2536	CB	164	TMC2	C6	1	-0.15	12.011
2537	C=O	164	TMC2	C	1	0.5438	12.011
2538	O=C	164	TMC2	O	1	-0.57	15.9994
2539	HCMM	164	TMC2	H	1	0.15	1.0079
2540	HCMM	164	TMC2	H1	1	0.15	1.0079
2541	HCMM	164	TMC2	H2	1	0.15	1.0079
2542	C=O	164	TMC2	C7	1	0.5438	12.011
2543	C=O	164	TMC2	C8	1	0.6338	12.011
2544	O=C	164	TMC2	O1	1	-0.57	15.9994
2545	O=C	164	TMC2	O2	1	-0.57	15.9994
2546	OR	164	TMC2	O5	1	-0.65	15.9994
2547	HOCO	164	TMC2	H5	1	0.5	1.0079
2548	CB	165	TMC2	C1	1	0.0862	12.011
2549	CB	165	TMC2	C2	1	-0.15	12.011
2550	CB	165	TMC2	C3	1	0.0862	12.011
2551	CB	165	TMC2	C4	1	-0.15	12.011
2552	CB	165	TMC2	C5	1	0.0862	12.011
2553	CB	165	TMC2	C6	1	-0.15	12.011
2554	C=O	165	TMC2	C	1	0.5438	12.011
2555	O=C	165	TMC2	O	1	-0.57	15.9994
2556	HCMM	165	TMC2	H	1	0.15	1.0079
2557	HCMM	165	TMC2	H1	1	0.15	1.0079
2558	HCMM	165	TMC2	H2	1	0.15	1.0079
2559	C=O	165	TMC2	C7	1	0.5438	12.011
2560	C=O	165	TMC2	C8	1	0.6338	12.011
2561	O=C	165	TMC2	O1	1	-0.57	15.9994
2562	O=C	165	TMC2	O2	1	-0.57	15.9994
2563	OR	165	TMC2	O5	1	-0.65	15.9994
2564	HOCO	165	TMC2	H5	1	0.5	1.0079
2565	CB	166	MPD2	C	1	-0.15	12.011
2566	CB	166	MPD2	C1	1	0.117	12.011
2567	CB	166	MPD2	C2	1	-0.15	12.011
2568	CB	166	MPD2	C3	1	0.117	12.011
2569	CB	166	MPD2	C4	1	-0.15	12.011
2570	CB	166	MPD2	C5	1	-0.15	12.011
2571	HCMM	166	MPD2	H	1	0.15	1.0079
2572	HCMM	166	MPD2	H1	1	0.15	1.0079
2573	HCMM	166	MPD2	H2	1	0.15	1.0079
2574	HCMM	166	MPD2	H3	1	0.15	1.0079
2575	NC=O	166	MPD2	N	1	-0.547	14.0067
2576	HNCO	166	MPD2	H5	1	0.37	1.0079
2577	NC=O	166	MPD2	N1	1	-0.547	14.0067
2578	HNCO	166	MPD2	H7	1	0.37	1.0079
2579	CB	167	TMC2	C1	1	0.0862	12.011
2580	CB	167	TMC2	C2	1	-0.15	12.011
2581	CB	167	TMC2	C3	1	0.0862	12.011
2582	CB	167	TMC2	C4	1	-0.15	12.011
2583	CB	167	TMC2	C5	1	0.0862	12.011
2584	CB	167	TMC2	C6	1	-0.15	12.011
2585	C=O	167	TMC2	C	1	0.5438	12.011
2586	O=C	167	TMC2	O	1	-0.57	15.9994
2587	HCMM	167	TMC2	H	1	0.15	1.0079
2588	HCMM	167	TMC2	H1	1	0.15	1.0079
2589	HCMM	167	TMC2	H2	1	0.15	1.0079
2590	C=O	167	TMC2	C7	1	0.5438	12.011
2591	C=O	167	TMC2	C8	1	0.6338	12.011
2592	O=C	167	TMC2	O1	1	-0.57	15.9994
2593	O=C	167	TMC2	O2	1	-0.57	15.9994
2594	OR	167	TMC2	O5	1	-0.65	15.9994
2595	HOCO	167	TMC2	H5	1	0.5	1.0079
2596	CB	168	MPD2	C	1	-0.15	12.011
2597	CB	168	MPD2	C1	1	0.117	12.011
2598	CB	168	MPD2	C2	1	-0.15	12.011
2599	CB	168	MPD2	C3	1	0.117	12.011
2600	CB	168	MPD2	C4	1	-0.15	12.011
2601	CB	168	MPD2	C5	1	-0.15	12.011
2602	HCMM	168	MPD2	H	1	0.15	1.0079
2603	HCMM	168	MPD2	H1	1	0.15	1.0079
2604	HCMM	168	MPD2	H2	1	0.15	1.0079
2605	HCMM	168	MPD2	H3	1	0.15	1.0079
2606	NC=O	168	MPD2	N	1	-0.547	14.0067
2607	HNCO	168	MPD2	H5	1	0.37	1.0079
2608	NC=O	168	MPD2	N1	1	-0.547	14.0067
2609	HNCO	168	MPD2	H7	1	0.37	1.0079
2610	CB	169	MPD1	C	1	-0.15	12.011
2611	CB	169	MPD1	C1	1	0.1	12.011
2612	CB	169	MPD1	C2	1	-0.15	12.011
2613	CB	169	MPD1	C3	1	0.117	12.011
2614	CB	169	MPD1	C4	1	-0.15	12.011
2615	CB	169	MPD1	C5	1	-0.15	12.011
2616	HCMM	169	MPD1	H	1	0.15	1.0079
2617	HCMM	169	MPD1	H1	1	0.15	1.0079
2618	HCMM	169	MPD1	H2	1	0.15	1.0079
2619	HCMM	169	MPD1	H3	1	0.15	1.0079
2620	NC=O	169	MPD1	N	1	-0.547	14.0067
2621	HNCO	169	MPD1	H5	1	0.37	1.0079
2622	NC=C	169	MPD1	N1	1	-0.9	14.0067
2623	HNCO	169	MPD1	H6	1	0.4	1.0079
2624	HNCO	169	MPD1	H7	1	0.4	1.0079
2625	CB	170	MPD1	C	1	-0.15	12.011
2626	CB	170	MPD1	C1	1	0.1	12.011
2627	CB	170	MPD1	C2	1	-0.15	12.011
2628	CB	170	MPD1	C3	1	0.117	12.011
2629	CB	170	MPD1	C4	1	-0.15	12.011
2630	CB	170	MPD1	C5	1	-0.15	12.011
2631	HCMM	170	MPD1	H	1	0.15	1.0079
2632	HCMM	170	MPD1	H1	1	0.15	1.0079
2633	HCMM	170	MPD1	H2	1	0.15	1.0079
2634	HCMM	170	MPD1	H3	1	0.15	1.0079
2635	NC=O	170	MPD1	N	1	-0.547	14.0067
2636	HNCO	170	MPD1	H5	1	0.37	1.0079
2637	NC=C	170	MPD1	N1	1	-0.9	14.0067
2638	HNCO	170	MPD1	H6	1	0.4	1.0079
2639	HNCO	170	MPD1	H7	1	0.4	1.0079
2640	CB	171	MPD1	C	1	-0.15	12.011
2641	CB	171	MPD1	C1	1	0.1	12.011
2642	CB	171	MPD1	C2	1	-0.15	12.011
2643	CB	171	MPD1	C3	1	0.117	12.011
2644	CB	171	MPD1	C4	1	-0.15	12.011
2645	CB	171	MPD1	C5	1	-0.15	12.011
2646	HCMM	171	MPD1	H	1	0.15	1.0079
2647	HCMM	171	MPD1	H1	1	0.15	1.0079
2648	HCMM	171	MPD1	H2	1	0.15	1.0079
2649	HCMM	171	MPD1	H3	1	0.15	1.0079
2650	NC=O	171	MPD1	N	1	-0.547	14.0067
2651	HNCO	171	MPD1	H5	1	0.37	1.0079
2652	NC=C	171	MPD1	N1	1	-0.9	14.0067
2653	HNCO	171	MPD1	H6	1	0.4	1.0079
2654	HNCO	171	MPD1	H7	1	0.4	1.0079
2655	CB	172	MPD1	C	1	-0.15	12.011
2656	CB	172	MPD1	C1	1	0.1	12.011
2657	CB	172	MPD1	C2	1	-0.15	12.011
2658	CB	172	MPD1	C3	1	0.117	12.011
2659	CB	172	MPD1	C4	1	-0.15	12.011
2660	CB	172	MPD1	C5	1	-0.15	12.011
2661	HCMM	172	MPD1	H	1	0.15	1.0079
2662	HCMM	172	MPD1	H1	1	0.15	1.0079
2663	HCMM	172	MPD1	H2	1	0.15	1.0079
2664	HCMM	172	MPD1	H3	1	0.15	1.0079
2665	NC=O	172	MPD1	N	1	-0.547	14.0067
2666	HNCO	172	MPD1	H5	1	0.37	1.0079
2667	NC=C	172	MPD1	N1	1	-0.9	14.0067
2668	HNCO	172	MPD1	H6	1	0.4	1.0079
2669	HNCO	172	MPD1	H7	1	0.4	1.0079
2670	CB	173	MPD1	C	1	-0.15	12.011
2671	CB	173	MPD1	C1	1	0.1	12.011
2672	CB	173	MPD1	C2	1	-0.15	12.011
2673	CB	173	MPD1	C3	1	0.117	12.011
2674	CB	173	MPD1	C4	1	-0.15	12.011
2675	CB	173	MPD1	C5	1	-0.15	12.011
2676	HCMM	173	MPD1	H	1	0.15	1.0079
2677	HCMM	173	MPD1	H1	1	0.15	1.0079
2678	HCMM	173	MPD1	H2	1	0.15	1.0079
2679	HCMM	173	MPD1	H3	1	0.15	1.0079
2680	NC=O	173	MPD1	N	1	-0.547	14.0067
2681	HNCO	173	MPD1	H5	1	0.37	1.0079
2682	NC=C	173	MPD1	N1	1	-0.9	14.0067
2683	HNCO	173	MPD1	H6	1	0.4	1.0079
2684	HNCO	173	MPD1	H7	1	0.4	1.0079
2685	CB	174	MPD1	C	1	-0.15	12.011
2686	CB	174	MPD1	C1	1	0.1	12.011
2687	CB	174	MPD1	C2	1	-0.15	12.011
2688	CB	174	MPD1	C3	1	0.117	12.011
2689	CB	174	MPD1	C4	1	-0.15	12.011
2690	CB	174	MPD1	C5	1	-0.15	12.011
2691	HCMM	174	MPD1	H	1	0.15	1.0079
2692	HCMM	174	MPD1	H1	1	0.15	1.0079
2693	HCMM	174	MPD1	H2	1	0.15	1.0079
2694	HCMM	174	MPD1	H3	1	0.15	1.0079
2695	NC=O	174	MPD1	N	1	-0.547	14.0067
2696	HNCO	174	MPD1	H5	1	0.37	1.0079
2697	NC=C	174	MPD1	N1	1	-0.9	14.0067
2698	HNCO	174	MPD1	H6	1	0.4	1.0079
2699	HNCO	174	MPD1	H7	1	0.4	1.0079
2700	CB	175	MPD1	C	1	-0.15	12.011
2701	CB	175	MPD1	C1	1	0.1	12.011
2702	CB	175	MPD1	C2	1	-0.15	12.011
2703	CB	175	MPD1	C3	1	0.117	12.011
2704	CB	175	MPD1	C4	1	-0.15	12.011
2705	CB	175	MPD1	C5	1	-0.15	12.011
2706	HCMM	175	MPD1	H	1	0.15	1.0079
2707	HCMM	175	MPD1	H1	1	0.15	1.0079
2708	HCMM	175	MPD1	H2	1	0.15	1.0079
2709	HCMM	175	MPD1	H3	1	0.15	1.0079
2710	NC=O	175	MPD1	N	1	-0.547	14.0067
2711	HNCO	175	MPD1	H5	1	0.37	1.0079
2712	NC=C	175	MPD1	N1	1	-0.9	14.0067
2713	HNCO	175	MPD1	H6	1	0.4	1.0079
2714	HNCO	175	MPD1	H7	1	0.4	1.0079
2715	CB	176	MPD1	C	1	-0.15	12.011
2716	CB	176	MPD1	C1	1	0.1	12.011
2717	CB	176	MPD1	C2	1	-0.15	12.011
2718	CB	176	MPD1	C3	1	0.117	12.011
2719	CB	176	MPD1	C4	1	-0.15	12.011
2720	CB	176	MPD1	C5	1	-0.15	12.011
2721	HCMM	176	MPD1	H	1	0.15	1.0079
2722	HCMM	176	MPD1	H1	1	0.15	1.0079
2723	HCMM	176	MPD1	H2	1	0.15	1.0079
2724	HCMM	176	MPD1	H3	1	0.15	1.0079
2725	NC=O	176	MPD1	N	1	-0.547	14.0067
2726	HNCO	176	MPD1	H5	1	0.37	1.0079
2727	NC=C	176	MPD1	N1	1	-0.9	14.0067
2728	HNCO	176	MPD1	H6	1	0.4	1.0079
2729	HNCO	176	MPD1	H7	1	0.4	1.0079
2730	CB	177	MPD1	C	1	-0.15	12.011
2731	CB	177	MPD1	C1	1	0.1	12.011
2732	CB	177	MPD1	C2	1	-0.15	12.011
2733	CB	177	MPD1	C3	1	0.117	12.011
2734	CB	177	MPD1	C4	1	-0.15	12.011
2735	CB	177	MPD1	C5	1	-0.15	12.011
2736	HCMM	177	MPD1	H	1	0.15	1.0079
2737	HCMM	177	MPD1	H1	1	0.15	1.0079
2738	HCMM	177	MPD1	H2	1	0.15	1.0079
2739	HCMM	177	MPD1	H3	1	0.15	1.0079
2740	NC=O	177	MPD1	N	1	-0.547	14.0067
2741	HNCO	177	MPD1	H5	1	0.37	1.0079
2742	NC=C	177	MPD1	N1	1	-0.9	14.0067
2743	HNCO	177	MPD1	H6	1	0.4	1.0079
2744	HNCO	177	MPD1	H7	1	0.4	1.0079
2745	CB	178	MPD1	C	1	-0.15	12.011
2746	CB	178	MPD1	C1	1	0.1	12.011
2747	CB	178	MPD1	C2	1	-0.15	12.011
2748	CB	178	MPD1	C3	1	0.117	12.011
2749	CB	178	MPD1	C4	1	-0.15	12.011
2750	CB	178	MPD1	C5	1	-0.15	12.011
2751	HCMM	178	MPD1	H	1	0.15	1.0079
2752	HCMM	178	MPD1	H1	1	0.15	1.0079
2753	HCMM	178	MPD1	H2	1	0.15	1.0079
2754	HCMM	178	MPD1	H3	1	0.15	1.0079
2755	NC=O	178	MPD1	N	1	-0.547	14.0067
2756	HNCO	178	MPD1	H5	1	0.37	1.0079
2757	NC=C	178	MPD1	N1	1	-0.9	14.0067
2758	HNCO	178	MPD1	H6	1	0.4	1.0079
2759	HNCO	178	MPD1	H7	1	0.4	1.0079
2760	CB	179	MPD1	C	1	-0.15	12.011
2761	CB	179	MPD1	C1	1	0.1	12.011
2762	CB	179	MPD1	C2	1	-0.15	12.011
2763	CB	179	MPD1	C3	1	0.117	12.011
2764	CB	179	MPD1	C4	1	-0.15	12.011
2765	CB	179	MPD1	C5	1	-0.15	12.011
2766	HCMM	179	MPD1	H	1	0.15	1.0079
2767	HCMM	179	MPD1	H1	1	0.15	1.0079
2768	HCMM	179	MPD1	H2	1	0.15	1.0079
2769	HCMM	179	MPD1	H3	1	0.15	1.0079
2770	NC=O	179	MPD1	N	1	-0.547	14.0067
2771	HNCO	179	MPD1	H5	1	0.37	1.0079
2772	NC=C	179	MPD1	N1	1	-0.9	14.0067
2773	HNCO	179	MPD1	H6	1	0.4	1.0079
2774	HNCO	179	MPD1	H7	1	0.4	1.0079
2775	CB	180	MPD1	C	1	-0.15	12.011
2776	CB	180	MPD1	C1	1	0.1	12.011
2777	CB	180	MPD1	C2	1	-0.15	12.011
2778	CB	180	MPD1	C3	1	0.117	12.011
2779	CB	180	MPD1	C4	1	-0.15	12.011
2780	CB	180	MPD1	C5	1	-0.15	12.011
2781	HCMM	180	MPD1	H	1	0.15	1.0079
2782	HCMM	180	MPD1	H1	1	0.15	1.0079
2783	HCMM	180	MPD1	H2	1	0.15	1.0079
2784	HCMM	180	MPD1	H3	1	0.15	1.0079
2785	NC=O	180	MPD1	N	1	-0.547	14.0067
2786	HNCO	180	MPD1	H5	1	0.37	1.0079
2787	NC=C	180	MPD1	N1	1	-0.9	14.0067
2788	HNCO	180	MPD1	H6	1	0.4	1.0079
2789	HNCO	180	MPD1	H7	1	0.4	1.0079
2790	CB	181	MPD1	C	1	-0.15	12.011
2791	CB	181	MPD1	C1	1	0.1	12.011
2792	CB	181	MPD1	C2	1	-0.15	12.011
2793	CB	181	MPD1	C3	1	0.117	12.011
2794	CB	181	MPD1	C4	1	-0.15	12.011
2795	CB	181	MPD1	C5	1	-0.15	12.011
2796	HCMM	181	MPD1	H	1	0.15	1.0079
2797	HCMM	181	MPD1	H1	1	0.15	1.0079
2798	HCMM	181	MPD1	H2	1	0.15	1.0079
2799	HCMM	181	MPD1	H3	1	0.15	1.0079
2800	NC=O	181	MPD1	N	1	-0.547	14.0067
2801	HNCO	181	MPD1	H5	1	0.37	1.0079
2802	NC=C	181	MPD1	N1	1	-0.9	14.0067
2803	HNCO	181	MPD1	H6	1	0.4	1.0079
2804	HNCO	181	MPD1	H7	1	0.4	1.0079
2805	CB	182	MPD1	C	1	-0.15	12.011
2806	CB	182	MPD1	C1	1	0.1	12.011
2807	CB	182	MPD1	C2	1	-0.15	12.011
2808	CB	182	MPD1	C3	1	0.117	12.011
2809	CB	182	MPD1	C4	1	-0.15	12.011
2810	CB	182	MPD1	C5	1	-0.15	12.011
2811	HCMM	182	MPD1	H	1	0.15	1.0079
2812	HCMM	182	MPD1	H1	1	0.15	1.0079
2813	HCMM	182	MPD1	H2	1	0.15	1.0079
2814	HCMM	182	MPD1	H3	1	0.15	1.0079
2815	NC=O	182	MPD1	N	1	-0.547	14.0067
2816	HNCO	182	MPD1	H5	1	0.37	1.0079
2817	NC=C	182	MPD1	N1	1	-0.9	14.0067
2818	HNCO	182	MPD1	H6	1	0.4	1.0079
2819	HNCO	182	MPD1	H7	1	0.4	1.0079
2820	CB	183	MPD1	C	1	-0.15	12.011
2821	CB	183	MPD1	C1	1	0.1	12.011
2822	CB	183	MPD1	C2	1	-0.15	12.011
2823	CB	183	MPD1	C3	1	0.117	12.011
2824	CB	183	MPD1	C4	1	-0.15	12.011
2825	CB	183	MPD1	C5	1	-0.15	12.011
2826	HCMM	183	MPD1	H	1	0.15	1.0079
2827	HCMM	183	MPD1	H1	1	0.15	1.0079
2828	HCMM	183	MPD1	H2	1	0.15	1.0079
2829	HCMM	183	MPD1	H3	1	0.15	1.0079
2830	NC=O	183	MPD1	N	1	-0.547	14.0067
2831	HNCO	183	MPD1	H5	1	0.37	1.0079
2832	NC=C	183	MPD1	N1	1	-0.9	14.0067
2833	HNCO	183	MPD1	H6	1	0.4	1.0079
2834	HNCO	183	MPD1	H7	1	0.4	1.0079
2835	CB	184	MPD1	C	1	-0.15	12.011
2836	CB	184	MPD1	C1	1	0.1	12.011
2837	CB	184	MPD1	C2	1	-0.15	12.011
2838	CB	184	MPD1	C3	1	0.117	12.011
2839	CB	184	MPD1	C4	1	-0.15	12.011
2840	CB	184	MPD1	C5	1	-0.15	12.011
2841	HCMM	184	MPD1	H	1	0.15	1.0079
2842	HCMM	184	MPD1	H1	1	0.15	1.0079
2843	HCMM	184	MPD1	H2	1	0.15	1.0079
2844	HCMM	184	MPD1	H3	1	0.15	1.0079
2845	NC=O	184	MPD1	N	1	-0.547	14.0067
2846	HNCO	184	MPD1	H5	1	0.37	1.0079
2847	NC=C	184	MPD1	N1	1	-0.9	14.0067
2848	HNCO	184	MPD1	H6	1	0.4	1.0079
2849	HNCO	184	MPD1	H7	1	0.4	1.0079
2850	CB	185	MPD1	C	1	-0.15	12.011
2851	CB	185	MPD1	C1	1	0.1	12.011
2852	CB	185	MPD1	C2	1	-0.15	12.011
2853	CB	185	MPD1	C3	1	0.117	12.011
2854	CB	185	MPD1	C4	1	-0.15	12.011
2855	CB	185	MPD1	C5	1	-0.15	12.011
2856	HCMM	185	MPD1	H	1	0.15	1.0079
2857	HCMM	185	MPD1	H1	1	0.15	1.0079
2858	HCMM	185	MPD1	H2	1	0.15	1.0079
2859	HCMM	185	MPD1	H3	1	0.15	1.0079
2860	NC=O	185	MPD1	N	1	-0.547	14.0067
2861	HNCO	185	MPD1	H5	1	0.37	1.0079
2862	NC=C	185	MPD1	N1	1	-0.9	14.0067
2863	HNCO	185	MPD1	H6	1	0.4	1.0079
2864	HNCO	185	MPD1	H7	1	0.4	1.0079
2865	CB	186	MPD1	C	1	-0.15	12.011
2866	CB	186	MPD1	C1	1	0.1	12.011
2867	CB	186	MPD1	C2	1	-0.15	12.011
2868	CB	186	MPD1	C3	1	0.117	12.011
2869	CB	186	MPD1	C4	1	-0.15	12.011
2870	CB	186	MPD1	C5	1	-0.15	12.011
2871	HCMM	186	MPD1	H	1	0.15	1.0079
2872	HCMM	186	MPD1	H1	1	0.15	1.0079
2873	HCMM	186	MPD1	H2	1	0.15	1.0079
2874	HCMM	186	MPD1	H3	1	0.15	1.0079
2875	NC=O	186	MPD1	N	1	-0.547	14.0067
2876	HNCO	186	MPD1	H5	1	0.37	1.0079
2877	NC=C	186	MPD1	N1	1	-0.9	14.0067
2878	HNCO	186	MPD1	H6	1	0.4	1.0079
2879	HNCO	186	MPD1	H7	1	0.4	1.0079
2880	CB	187	MPD1	C	1	-0.15	12.011
2881	CB	187	MPD1	C1	1	0.1	12.011
2882	CB	187	MPD1	C2	1	-0.15	12.011
2883	CB	187	MPD1	C3	1	0.117	12.011
2884	CB	187	MPD1	C4	1	-0.15	12.011
2885	CB	187	MPD1	C5	1	-0.15	12.011
2886	HCMM	187	MPD1	H	1	0.15	1.0079
2887	HCMM	187	MPD1	H1	1	0.15	1.0079
2888	HCMM	187	MPD1	H2	1	0.15	1.0079
2889	HCMM	187	MPD1	H3	1	0.15	1.0079
2890	NC=O	187	MPD1	N	1	-0.547	14.0067
2891	HNCO	187	MPD1	H5	1	0.37	1.0079
2892	NC=C	187	MPD1	N1	1	-0.9	14.0067
2893	HNCO	187	MPD1	H6	1	0.4	1.0079
2894	HNCO	187	MPD1	H7	1	0.4	1.0079
2895	CB	188	MPD1	C	1	-0.15	12.011
2896	CB	188	MPD1	C1	1	0.1	12.011
2897	CB	188	MPD1	C2	1	-0.15	12.011
2898	CB	188	MPD1	C3	1	0.117	12.011
2899	CB	188	MPD1	C4	1	-0.15	12.011
2900	CB	188	MPD1	C5	1	-0.15	12.011
2901	HCMM	188	MPD1	H	1	0.15	1.0079
2902	HCMM	188	MPD1	H1	1	0.15	1.0079
2903	HCMM	188	MPD1	H2	1	0.15	1.0079
2904	HCMM	188	MPD1	H3	1	0.15	1.0079
2905	NC=O	188	MPD1	N	1	-0.547	14.0067
2906	HNCO	188	MPD1	H5	1	0.37	1.0079
2907	NC=C	188	MPD1	N1	1	-0.9	14.0067
2908	HNCO	188	MPD1	H6	1	0.4	1.0079
2909	HNCO	188	MPD1	H7	1	0.4	1.0079
2910	CB	189	MPD1	C	1	-0.15	12.011
2911	CB	189	MPD1	C1	1	0.1	12.011
2912	CB	189	MPD1	C2	1	-0.15	12.011
2913	CB	189	MPD1	C3	1	0.117	12.011
2914	CB	189	MPD1	C4	1	-0.15	12.011
2915	CB	189	MPD1	C5	1	-0.15	12.011
2916	HCMM	189	MPD1	H	1	0.15	1.0079
2917	HCMM	189	MPD1	H1	1	0.15	1.0079
2918	HCMM	189	MPD1	H2	1	0.15	1.0079
2919	HCMM	189	MPD1	H3	1	0.15	1.0079
2920	NC=O	189	MPD1	N	1	-0.547	14.0067
2921	HNCO	189	MPD1	H5	1	0.37	1.0079
2922	NC=C	189	MPD1	N1	1	-0.9	14.0067
2923	HNCO	189	MPD1	H6	1	0.4	1.0079
2924	HNCO	189	MPD1	H7	1	0.4	1.0079
2925	CB	190	MPD1	C	1	-0.15	12.011
2926	CB	190	MPD1	C1	1	0.1	12.011
2927	CB	190	MPD1	C2	1	-0.15	12.011
2928	CB	190	MPD1	C3	1	0.117	12.011
2929	CB	190	MPD1	C4	1	-0.15	12.011
2930	CB	190	MPD1	C5	1	-0.15	12.011
2931	HCMM	190	MPD1	H	1	0.15	1.0079
2932	HCMM	190	MPD1	H1	1	0.15	1.0079
2933	HCMM	190	MPD1	H2	1	0.15	1.0079
2934	HCMM	190	MPD1	H3	1	0.15	1.0079
2935	NC=O	190	MPD1	N	1	-0.547	14.0067
2936	HNCO	190	MPD1	H5	1	0.37	1.0079
2937	NC=C	190	MPD1	N1	1	-0.9	14.0067
2938	HNCO	190	MPD1	H6	1	0.4	1.0079
2939	HNCO	190	MPD1	H7	1	0.4	1.0079
2940	CB	191	MPD1	C	1	-0.15	12.011
2941	CB	191	MPD1	C1	1	0.1	12.011
2942	CB	191	MPD1	C2	1	-0.15	12.011
2943	CB	191	MPD1	C3	1	0.117	12.011
2944	CB	191	MPD1	C4	1	-0.15	12.011
2945	CB	191	MPD1	C5	1	-0.15	12.011
2946	HCMM	191	MPD1	H	1	0.15	1.0079
2947	HCMM	191	MPD1	H1	1	0.15	1.0079
2948	HCMM	191	MPD1	H2	1	0.15	1.0079
2949	HCMM	191	MPD1	H3	1	0.15	1.0079
2950	NC=O	191	MPD1	N	1	-0.547	14.0067
2951	HNCO	191	MPD1	H5	1	0.37	1.0079
2952	NC=C	191	MPD1	N1	1	-0.9	14.0067
2953	HNCO	191	MPD1	H6	1	0.4	1.0079
2954	HNCO	191	MPD1	H7	1	0.4	1.0079
2955	CB	192	MPD1	C	1	-0.15	12.011
2956	CB	192	MPD1	C1	1	0.1	12.011
2957	CB	192	MPD1	C2	1	-0.15	12.011
2958	CB	192	MPD1	C3	1	0.117	12.011
2959	CB	192	MPD1	C4	1	-0.15	12.011
2960	CB	192	MPD1	C5	1	-0.15	12.011
2961	HCMM	192	MPD1	H	1	0.15	1.0079
2962	HCMM	192	MPD1	H1	1	0.15	1.0079
2963	HCMM	192	MPD1	H2	1	0.15	1.0079
2964	HCMM	192	MPD1	H3	1	0.15	1.0079
2965	NC=O	192	MPD1	N	1	-0.547	14.0067
2966	HNCO	192	MPD1	H5	1	0.37	1.0079
2967	NC=C	192	MPD1	N1	1	-0.9	14.0067
2968	HNCO	192	MPD1	H6	1	0.4	1.0079
2969	HNCO	192	MPD1	H7	1	0.4	1.0079
2970	CB	193	MPD1	C	1	-0.15	12.011
2971	CB	193	MPD1	C1	1	0.1	12.011
2972	CB	193	MPD1	C2	1	-0.15	12.011
2973	CB	193	MPD1	C3	1	0.117	12.011
2974	CB	193	MPD1	C4	1	-0.15	12.011
2975	CB	193	MPD1	C5	1	-0.15	12.011
2976	HCMM	193	MPD1	H	1	0.15	1.0079
2977	HCMM	193	MPD1	H1	1	0.15	1.0079
2978	HCMM	193	MPD1	H2	1	0.15	1.0079
2979	HCMM	193	MPD1	H3	1	0.15	1.0079
2980	NC=O	193	MPD1	N	1	-0.547	14.0067
2981	HNCO	193	MPD1	H5	1	0.37	1.0079
2982	NC=C	193	MPD1	N1	1	-0.9	14.0067
2983	HNCO	193	MPD1	H6	1	0.4	1.0079
2984	HNCO	193	MPD1	H7	1	0.4	1.0079
2985	CB	194	MPD1	C	1	-0.15	12.011
2986	CB	194	MPD1	C1	1	0.1	12.011
2987	CB	194	MPD1	C2	1	-0.15	12.011
2988	CB	194	MPD1	C3	1	0.117	12.011
2989	CB	194	MPD1	C4	1	-0.15	12.011
2990	CB	194	MPD1	C5	1	-0.15	12.011
2991	HCMM	194	MPD1	H	1	0.15	1.0079
2992	HCMM	194	MPD1	H1	1	0.15	1.0079
2993	HCMM	194	MPD1	H2	1	0.15	1.0079
2994	HCMM	194	MPD1	H3	1	0.15	1.0079
2995	NC=O	194	MPD1	N	1	-0.547	14.0067
2996	HNCO	194	MPD1	H5	1	0.37	1.0079
2997	NC=C	194	MPD1	N1	1	-0.9	14.0067
2998	HNCO	194	MPD1	H6	1	0.4	1.0079
2999	HNCO	194	MPD1	H7	1	0.4	1.0079
3000	CB	195	MPD1	C	1	-0.15	12.011
3001	CB	195	MPD1	C1	1	0.1	12.011
3002	CB	195	MPD1	C2	1	-0.15	12.011
3003	CB	195	MPD1	C3	1	0.117	12.011
3004	CB	195	MPD1	C4	1	-0.15	12.011
3005	CB	195	MPD1	C5	1	-0.15	12.011
3006	HCMM	195	MPD1	H	1	0.15	1.0079
3007	HCMM	195	MPD1	H1	1	0.15	1.0079
3008	HCMM	195	MPD1	H2	1	0.15	1.0079
3009	HCMM	195	MPD1	H3	1	0.15	1.0079
3010	NC=O	195	MPD1	N	1	-0.547	14.0067
3011	HNCO	195	MPD1	H5	1	0.37	1.0079
3012	NC=C	195	MPD1	N1	1	-0.9	14.0067
3013	HNCO	195	MPD1	H6	1	0.4	1.0079
3014	HNCO	195	MPD1	H7	1	0.4	1.0079
3015	CB	196	MPD1	C	1	-0.15	12.011
3016	CB	196	MPD1	C1	1	0.1	12.011
3017	CB	196	MPD1	C2	1	-0.15	12.011
3018	CB	196	MPD1	C3	1	0.117	12.011
3019	CB	196	MPD1	C4	1	-0.15	12.011
3020	CB	196	MPD1	C5	1	-0.15	12.011
3021	HCMM	196	MPD1	H	1	0.15	1.0079
3022	HCMM	196	MPD1	H1	1	0.15	1.0079
3023	HCMM	196	MPD1	H2	1	0.15	1.0079
3024	HCMM	196	MPD1	H3	1	0.15	1.0079
3025	NC=O	196	MPD1	N	1	-0.547	14.0067
3026	HNCO	196	MPD1	H5	1	0.37	1.0079
3027	NC=C	196	MPD1	N1	1	-0.9	14.0067
3028	HNCO	196	MPD1	H6	1	0.4	1.0079
3029	HNCO	196	MPD1	H7	1	0.4	1.0079
3030	CB	197	MPD1	C	1	-0.15	12.011
3031	CB	197	MPD1	C1	1	0.1	12.011
3032	CB	197	MPD1	C2	1	-0.15	12.011
3033	CB	197	MPD1	C3	1	0.117	12.011
3034	CB	197	MPD1	C4	1	-0.15	12.011
3035	CB	197	MPD1	C5	1	-0.15	12.011
3036	HCMM	197	MPD1	H	1	0.15	1.0079
3037	HCMM	197	MPD1	H1	1	0.15	1.0079
3038	HCMM	197	MPD1	H2	1	0.15	1.0079
3039	HCMM	197	MPD1	H3	1	0.15	1.0079
3040	NC=O	197	MPD1	N	1	-0.547	14.0067
3041	HNCO	197	MPD1	H5	1	0.37	1.0079
3042	NC=C	197	MPD1	N1	1	-0.9	14.0067
3043	HNCO	197	MPD1	H6	1	0.4	1.0079
3044	HNCO	197	MPD1	H7	1	0.4	1.0079
3045	CB	198	MPD1	C	1	-0.15	12.011
3046	CB	198	MPD1	C1	1	0.1	12.011
3047	CB	198	MPD1	C2	1	-0.15	12.011
3048	CB	198	MPD1	C3	1	0.117	12.011
3049	CB	198	MPD1	C4	1	-0.15	12.011
3050	CB	198	MPD1	C5	1	-0.15	12.011
3051	HCMM	198	MPD1	H	1	0.15	1.0079
3052	HCMM	198	MPD1	H1	1	0.15	1.0079
3053	HCMM	198	MPD1	H2	1	0.15	1.0079
3054	HCMM	198	MPD1	H3	1	0.15	1.0079
3055	NC=O	198	MPD1	N	1	-0.547	14.0067
3056	HNCO	198	MPD1	H5	1	0.37	1.0079
3057	NC=C	198	MPD1	N1	1	-0.9	14.0067
3058	HNCO	198	MPD1	H6	1	0.4	1.0079
3059	HNCO	198	MPD1	H7	1	0.4	1.0079
3060	CB	199	MPD1	C	1	-0.15	12.011
3061	CB	199	MPD1	C1	1	0.1	12.011
3062	CB	199	MPD1	C2	1	-0.15	12.011
3063	CB	199	MPD1	C3	1	0.117	12.011
3064	CB	199	MPD1	C4	1	-0.15	12.011
3065	CB	199	MPD1	C5	1	-0.15	12.011
3066	HCMM	199	MPD1	H	1	0.15	1.0079
3067	HCMM	199	MPD1	H1	1	0.15	1.0079
3068	HCMM	199	MPD1	H2	1	0.15	1.0079
3069	HCMM	199	MPD1	H3	1	0.15	1.0079
3070	NC=O	199	MPD1	N	1	-0.547	14.0067
3071	HNCO	199	MPD1	H5	1	0.37	1.0079
3072	NC=C	199	MPD1	N1	1	-0.9	14.0067
3073	HNCO	199	MPD1	H6	1	0.4	1.0079
3074	HNCO	199	MPD1	H7	1	0.4	1.0079
3075	CB	200	MPD1	C	1	-0.15	12.011
3076	CB	200	MPD1	C1	1	0.1	12.011
3077	CB	200	MPD1	C2	1	-0.15	12.011
3078	CB	200	MPD1	C3	1	0.117	12.011
3079	CB	200	MPD1	C4	1	-0.15	12.011
3080	CB	200	MPD1	C5	1	-0.15	12.011
3081	HCMM	200	MPD1	H	1	0.15	1.0079
3082	HCMM	200	MPD1	H1	1	0.15	1.0079
3083	HCMM	200	MPD1	H2	1	0.15	1.0079
3084	HCMM	200	MPD1	H3	1	0.15	1.0079
3085	NC=O	200	MPD1	N	1	-0.547	14.0067
3086	HNCO	200	MPD1	H5	1	0.37	1.0079
3087	NC=C	200	MPD1	N1	1	-0.9	14.0067
3088	HNCO	200	MPD1	H6	1	0.4	1.0079
3089	HNCO	200	MPD1	H7	1	0.4	1.0079
3090	CB	201	MPD1	C	1	-0.15	12.011
3091	CB	201	MPD1	C1	1	0.1	12.011
3092	CB	201	MPD1	C2	1	-0.15	12.011
3093	CB	201	MPD1	C3	1	0.117	12.011
3094	CB	201	MPD1	C4	1	-0.15	12.011
3095	CB	201	MPD1	C5	1	-0.15	12.011
3096	HCMM	201	MPD1	H	1	0.15	1.0079
3097	HCMM	201	MPD1	H1	1	0.15	1.0079
3098	HCMM	201	MPD1	H2	1	0.15	1.0079
3099	HCMM	201	MPD1	H3	1	0.15	1.0079
3100	NC=O	201	MPD1	N	1	-0.547	14.0067
3101	HNCO	201	MPD1	H5	1	0.37	1.0079
3102	NC=C	201	MPD1	N1	1	-0.9	14.0067
3103	HNCO	201	MPD1	H6	1	0.4	1.0079
3104	HNCO	201	MPD1	H7	1	0.4	1.0079
3105	CB	202	MPD1	C	1	-0.15	12.011
3106	CB	202	MPD1	C1	1	0.1	12.011
3107	CB	202	MPD1	C2	1	-0.15	12.011
3108	CB	202	MPD1	C3	1	0.117	12.011
3109	CB	202	MPD1	C4	1	-0.15	12.011
3110	CB	202	MPD1	C5	1	-0.15	12.011
3111	HCMM	202	MPD1	H	1	0.15	1.0079
3112	HCMM	202	MPD1	H1	1	0.15	1.0079
3113	HCMM	202	MPD1	H2	1	0.15	1.0079
3114	HCMM	202	MPD1	H3	1	0.15	1.0079
3115	NC=O	202	MPD1	N	1	-0.547	14.0067
3116	HNCO	202	MPD1	H5	1	0.37	1.0079
3117	NC=C	202	MPD1	N1	1	-0.9	14.0067
3118	HNCO	202	MPD1	H6	1	0.4	1.0079
3119	HNCO	202	MPD1	H7	1	0.4	1.0079
3120	CB	203	MPD1	C	1	-0.15	12.011
3121	CB	203	MPD1	C1	1	0.1	12.011
3122	CB	203	MPD1	C2	1	-0.15	12.011
3123	CB	203	MPD1	C3	1	0.117	12.011
3124	CB	203	MPD1	C4	1	-0.15	12.011
3125	CB	203	MPD1	C5	1	-0.15	12.011
3126	HCMM	203	MPD1	H	1	0.15	1.0079
3127	HCMM	203	MPD1	H1	1	0.15	1.0079
3128	HCMM	203	MPD1	H2	1	0.15	1.0079
3129	HCMM	203	MPD1	H3	1	0.15	1.0079
3130	NC=O	203	MPD1	N	1	-0.547	14.0067
3131	HNCO	203	MPD1	H5	1	0.37	1.0079
3132	NC=C	203	MPD1	N1	1	-0.9	14.0067
3133	HNCO	203	MPD1	H6	1	0.4	1.0079
3134	HNCO	203	MPD1	H7	1	0.4	1.0079
3135	CB	204	MPD1	C	1	-0.15	12.011
3136	CB	204	MPD1	C1	1	0.1	12.011
3137	CB	204	MPD1	C2	1	-0.15	12.011
3138	CB	204	MPD1	C3	1	0.117	12.011
3139	CB	204	MPD1	C4	1	-0.15	12.011
3140	CB	204	MPD1	C5	1	-0.15	12.011
3141	HCMM	204	MPD1	H	1	0.15	1.0079
3142	HCMM	204	MPD1	H1	1	0.15	1.0079
3143	HCMM	204	MPD1	H2	1	0.15	1.0079
3144	HCMM	204	MPD1	H3	1	0.15	1.0079
3145	NC=O	204	MPD1	N	1	-0.547	14.0067
3146	HNCO	204	MPD1	H5	1	0.37	1.0079
3147	NC=C	204	MPD1	N1	1	-0.9	14.0067
3148	HNCO	204	MPD1	H6	1	0.4	1.0079
3149	HNCO	204	MPD1	H7	1	0.4	1.0079
3150	CB	205	MPD1	C	1	-0.15	12.011
3151	CB	205	MPD1	C1	1	0.1	12.011
3152	CB	205	MPD1	C2	1	-0.15	12.011
3153	CB	205	MPD1	C3	1	0.117	12.011
3154	CB	205	MPD1	C4	1	-0.15	12.011
3155	CB	205	MPD1	C5	1	-0.15	12.011
3156	HCMM	205	MPD1	H	1	0.15	1.0079
3157	HCMM	205	MPD1	H1	1	0.15	1.0079
3158	HCMM	205	MPD1	H2	1	0.15	1.0079
3159	HCMM	205	MPD1	H3	1	0.15	1.0079
3160	NC=O	205	MPD1	N	1	-0.547	14.0067
3161	HNCO	205	MPD1	H5	1	0.37	1.0079
3162	NC=C	205	MPD1	N1	1	-0.9	14.0067
3163	HNCO	205	MPD1	H6	1	0.4	1.0079
3164	HNCO	205	MPD1	H7	1	0.4	1.0079
3165	CB	206	MPD1	C	1	-0.15	12.011
3166	CB	206	MPD1	C1	1	0.1	12.011
3167	CB	206	MPD1	C2	1	-0.15	12.011
3168	CB	206	MPD1	C3	1	0.117	12.011
3169	CB	206	MPD1	C4	1	-0.15	12.011
3170	CB	206	MPD1	C5	1	-0.15	12.011
3171	HCMM	206	MPD1	H	1	0.15	1.0079
3172	HCMM	206	MPD1	H1	1	0.15	1.0079
3173	HCMM	206	MPD1	H2	1	0.15	1.0079
3174	HCMM	206	MPD1	H3	1	0.15	1.0079
3175	NC=O	206	MPD1	N	1	-0.547	14.0067
3176	HNCO	206	MPD1	H5	1	0.37	1.0079
3177	NC=C	206	MPD1	N1	1	-0.9	14.0067
3178	HNCO	206	MPD1	H6	1	0.4	1.0079
3179	HNCO	206	MPD1	H7	1	0.4	1.0079
3180	CB	207	MPD1	C	1	-0.15	12.011
3181	CB	207	MPD1	C1	1	0.1	12.011
3182	CB	207	MPD1	C2	1	-0.15	12.011
3183	CB	207	MPD1	C3	1	0.117	12.011
3184	CB	207	MPD1	C4	1	-0.15	12.011
3185	CB	207	MPD1	C5	1	-0.15	12.011
3186	HCMM	207	MPD1	H	1	0.15	1.0079
3187	HCMM	207	MPD1	H1	1	0.15	1.0079
3188	HCMM	207	MPD1	H2	1	0.15	1.0079
3189	HCMM	207	MPD1	H3	1	0.15	1.0079
3190	NC=O	207	MPD1	N	1	-0.547	14.0067
3191	HNCO	207	MPD1	H5	1	0.37	1.0079
3192	NC=C	207	MPD1	N1	1	-0.9	14.0067
3193	HNCO	207	MPD1	H6	1	0.4	1.0079
3194	HNCO	207	MPD1	H7	1	0.4	1.0079
3195	CB	208	MPD1	C	1	-0.15	12.011
3196	CB	208	MPD1	C1	1	0.1	12.011
3197	CB	208	MPD1	C2	1	-0.15	12.011
3198	CB	208	MPD1	C3	1	0.117	12.011
3199	CB	208	MPD1	C4	1	-0.15	12.011
3200	CB	208	MPD1	C5	1	-0.15	12.011
3201	HCMM	208	MPD1	H	1	0.15	1.0079
3202	HCMM	208	MPD1	H1	1	0.15	1.0079
3203	HCMM	208	MPD1	H2	1	0.15	1.0079
3204	HCMM	208	MPD1	H3	1	0.15	1.0079
3205	NC=O	208	MPD1	N	1	-0.547	14.0067
3206	HNCO	208	MPD1	H5	1	0.37	1.0079
3207	NC=C	208	MPD1	N1	1	-0.9	14.0067
3208	HNCO	208	MPD1	H6	1	0.4	1.0079
3209	HNCO	208	MPD1	H7	1	0.4	1.0079
3210	CB	209	MPD1	C	1	-0.15	12.011
3211	CB	209	MPD1	C1	1	0.1	12.011
3212	CB	209	MPD1	C2	1	-0.15	12.011
3213	CB	209	MPD1	C3	1	0.117	12.011
3214	CB	209	MPD1	C4	1	-0.15	12.011
3215	CB	209	MPD1	C5	1	-0.15	12.011
3216	HCMM	209	MPD1	H	1	0.15	1.0079
3217	HCMM	209	MPD1	H1	1	0.15	1.0079
3218	HCMM	209	MPD1	H2	1	0.15	1.0079
3219	HCMM	209	MPD1	H3	1	0.15	1.0079
3220	NC=O	209	MPD1	N	1	-0.547	14.0067
3221	HNCO	209	MPD1	H5	1	0.37	1.0079
3222	NC=C	209	MPD1	N1	1	-0.9	14.0067
3223	HNCO	209	MPD1	H6	1	0.4	1.0079
3224	HNCO	209	MPD1	H7	1	0.4	1.0079
3225	CB	210	MPD1	C	1	-0.15	12.011
3226	CB	210	MPD1	C1	1	0.1	12.011
3227	CB	210	MPD1	C2	1	-0.15	12.011
3228	CB	210	MPD1	C3	1	0.117	12.011
3229	CB	210	MPD1	C4	1	-0.15	12.011
3230	CB	210	MPD1	C5	1	-0.15	12.011
3231	HCMM	210	MPD1	H	1	0.15	1.0079
3232	HCMM	210	MPD1	H1	1	0.15	1.0079
3233	HCMM	210	MPD1	H2	1	0.15	1.0079
3234	HCMM	210	MPD1	H3	1	0.15	1.0079
3235	NC=O	210	MPD1	N	1	-0.547	14.0067
3236	HNCO	210	MPD1	H5	1	0.37	1.0079
3237	NC=C	210	MPD1	N1	1	-0.9	14.0067
3238	HNCO	210	MPD1	H6	1	0.4	1.0079
3239	HNCO	210	MPD1	H7	1	0.4	1.0079
3240	CB	211	MPD1	C	1	-0.15	12.011
3241	CB	211	MPD1	C1	1	0.1	12.011
3242	CB	211	MPD1	C2	1	-0.15	12.011
3243	CB	211	MPD1	C3	1	0.117	12.011
3244	CB	211	MPD1	C4	1	-0.15	12.011
3245	CB	211	MPD1	C5	1	-0.15	12.011
3246	HCMM	211	MPD1	H	1	0.15	1.0079
3247	HCMM	211	MPD1	H1	1	0.15	1.0079
3248	HCMM	211	MPD1	H2	1	0.15	1.0079
3249	HCMM	211	MPD1	H3	1	0.15	1.0079
3250	NC=O	211	MPD1	N	1	-0.547	14.0067
3251	HNCO	211	MPD1	H5	1	0.37	1.0079
3252	NC=C	211	MPD1	N1	1	-0.9	14.0067
3253	HNCO	211	MPD1	H6	1	0.4	1.0079
3254	HNCO	211	MPD1	H7	1	0.4	1.0079
3255	CB	212	MPD1	C	1	-0.15	12.011
3256	CB	212	MPD1	C1	1	0.1	12.011
3257	CB	212	MPD1	C2	1	-0.15	12.011
3258	CB	212	MPD1	C3	1	0.117	12.011
3259	CB	212	MPD1	C4	1	-0.15	12.011
3260	CB	212	MPD1	C5	1	-0.15	12.011
3261	HCMM	212	MPD1	H	1	0.15	1.0079
3262	HCMM	212	MPD1	H1	1	0.15	1.0079
3263	HCMM	212	MPD1	H2	1	0.15	1.0079
3264	HCMM	212	MPD1	H3	1	0.15	1.0079
3265	NC=O	212	MPD1	N	1	-0.547	14.0067
3266	HNCO	212	MPD1	H5	1	0.37	1.0079
3267	NC=C	212	MPD1	N1	1	-0.9	14.0067
3268	HNCO	212	MPD1	H6	1	0.4	1.0079
3269	HNCO	212	MPD1	H7	1	0.4	1.0079
3270	CB	213	MPD1	C	1	-0.15	12.011
3271	CB	213	MPD1	C1	1	0.1	12.011
3272	CB	213	MPD1	C2	1	-0.15	12.011
3273	CB	213	MPD1	C3	1	0.117	12.011
3274	CB	213	MPD1	C4	1	-0.15	12.011
3275	CB	213	MPD1	C5	1	-0.15	12.011
3276	HCMM	213	MPD1	H	1	0.15	1.0079
3277	HCMM	213	MPD1	H1	1	0.15	1.0079
3278	HCMM	213	MPD1	H2	1	0.15	1.0079
3279	HCMM	213	MPD1	H3	1	0.15	1.0079
3280	NC=O	213	MPD1	N	1	-0.547	14.0067
3281	HNCO	213	MPD1	H5	1	0.37	1.0079
3282	NC=C	213	MPD1	N1	1	-0.9	14.0067
3283	HNCO	213	MPD1	H6	1	0.4	1.0079
3284	HNCO	213	MPD1	H7	1	0.4	1.0079
3285	CB	214	MPD1	C	1	-0.15	12.011
3286	CB	214	MPD1	C1	1	0.1	12.011
3287	CB	214	MPD1	C2	1	-0.15	12.011
3288	CB	214	MPD1	C3	1	0.117	12.011
3289	CB	214	MPD1	C4	1	-0.15	12.011
3290	CB	214	MPD1	C5	1	-0.15	12.011
3291	HCMM	214	MPD1	H	1	0.15	1.0079
3292	HCMM	214	MPD1	H1	1	0.15	1.0079
3293	HCMM	214	MPD1	H2	1	0.15	1.0079
3294	HCMM	214	MPD1	H3	1	0.15	1.0079
3295	NC=O	214	MPD1	N	1	-0.547	14.0067
3296	HNCO	214	MPD1	H5	1	0.37	1.0079
3297	NC=C	214	MPD1	N1	1	-0.9	14.0067
3298	HNCO	214	MPD1	H6	1	0.4	1.0079
3299	HNCO	214	MPD1	H7	1	0.4	1.0079
3300	CB	215	MPD1	C	1	-0.15	12.011
3301	CB	215	MPD1	C1	1	0.1	12.011
3302	CB	215	MPD1	C2	1	-0.15	12.011
3303	CB	215	MPD1	C3	1	0.117	12.011
3304	CB	215	MPD1	C4	1	-0.15	12.011
3305	CB	215	MPD1	C5	1	-0.15	12.011
3306	HCMM	215	MPD1	H	1	0.15	1.0079
3307	HCMM	215	MPD1	H1	1	0.15	1.0079
3308	HCMM	215	MPD1	H2	1	0.15	1.0079
3309	HCMM	215	MPD1	H3	1	0.15	1.0079
3310	NC=O	215	MPD1	N	1	-0.547	14.0067
3311	HNCO	215	MPD1	H5	1	0.37	1.0079
3312	NC=C	215	MPD1	N1	1	-0.9	14.0067
3313	HNCO	215	MPD1	H6	1	0.4	1.0079
3314	HNCO	215	MPD1	H7	1	0.4	1.0079
3315	CB	216	MPD1	C	1	-0.15	12.011
3316	CB	216	MPD1	C1	1	0.1	12.011
3317	CB	216	MPD1	C2	1	-0.15	12.011
3318	CB	216	MPD1	C3	1	0.117	12.011
3319	CB	216	MPD1	C4	1	-0.15	12.011
3320	CB	216	MPD1	C5	1	-0.15	12.011
3321	HCMM	216	MPD1	H	1	0.15	1.0079
3322	HCMM	216	MPD1	H1	1	0.15	1.0079
3323	HCMM	216	MPD1	H2	1	0.15	1.0079
3324	HCMM	216	MPD1	H3	1	0.15	1.0079
3325	NC=O	216	MPD1	N	1	-0.547	14.0067
3326	HNCO	216	MPD1	H5	1	0.37	1.0079
3327	NC=C	216	MPD1	N1	1	-0.9	14.0067
3328	HNCO	216	MPD1	H6	1	0.4	1.0079
3329	HNCO	216	MPD1	H7	1	0.4	1.0079
3330	CB	217	MPD1	C	1	-0.15	12.011
3331	CB	217	MPD1	C1	1	0.1	12.011
3332	CB	217	MPD1	C2	1	-0.15	12.011
3333	CB	217	MPD1	C3	1	0.117	12.011
3334	CB	217	MPD1	C4	1	-0.15	12.011
3335	CB	217	MPD1	C5	1	-0.15	12.011
3336	HCMM	217	MPD1	H	1	0.15	1.0079
3337	HCMM	217	MPD1	H1	1	0.15	1.0079
3338	HCMM	217	MPD1	H2	1	0.15	1.0079
3339	HCMM	217	MPD1	H3	1	0.15	1.0079
3340	NC=O	217	MPD1	N	1	-0.547	14.0067
3341	HNCO	217	MPD1	H5	1	0.37	1.0079
3342	NC=C	217	MPD1	N1	1	-0.9	14.0067
3343	HNCO	217	MPD1	H6	1	0.4	1.0079
3344	HNCO	217	MPD1	H7	1	0.4	1.0079
3345	CB	218	MPD1	C	1	-0.15	12.011
3346	CB	218	MPD1	C1	1	0.1	12.011
3347	CB	218	MPD1	C2	1	-0.15	12.011
3348	CB	218	MPD1	C3	1	0.117	12.011
3349	CB	218	MPD1	C4	1	-0.15	12.011
3350	CB	218	MPD1	C5	1	-0.15	12.011
3351	HCMM	218	MPD1	H	1	0.15	1.0079
3352	HCMM	218	MPD1	H1	1	0.15	1.0079
3353	HCMM	218	MPD1	H2	1	0.15	1.0079
3354	HCMM	218	MPD1	H3	1	0.15	1.0079
3355	NC=O	218	MPD1	N	1	-0.547	14.0067
3356	HNCO	218	MPD1	H5	1	0.37	1.0079
3357	NC=C	218	MPD1	N1	1	-0.9	14.0067
3358	HNCO	218	MPD1	H6	1	0.4	1.0079
3359	HNCO	218	MPD1	H7	1	0.4	1.0079
3360	CB	219	MPD1	C	1	-0.15	12.011
3361	CB	219	MPD1	C1	1	0.1	12.011
3362	CB	219	MPD1	C2	1	-0.15	12.011
3363	CB	219	MPD1	C3	1	0.117	12.011
3364	CB	219	MPD1	C4	1	-0.15	12.011
3365	CB	219	MPD1	C5	1	-0.15	12.011
3366	HCMM	219	MPD1	H	1	0.15	1.0079
3367	HCMM	219	MPD1	H1	1	0.15	1.0079
3368	HCMM	219	MPD1	H2	1	0.15	1.0079
3369	HCMM	219	MPD1	H3	1	0.15	1.0079
3370	NC=O	219	MPD1	N	1	-0.547	14.0067
3371	HNCO	219	MPD1	H5	1	0.37	1.0079
3372	NC=C	219	MPD1	N1	1	-0.9	14.0067
3373	HNCO	219	MPD1	H6	1	0.4	1.0079
3374	HNCO	219	MPD1	H7	1	0.4	1.0079
3375	CB	220	MPD1	C	1	-0.15	12.011
3376	CB	220	MPD1	C1	1	0.1	12.011
3377	CB	220	MPD1	C2	1	-0.15	12.011
3378	CB	220	MPD1	C3	1	0.117	12.011
3379	CB	220	MPD1	C4	1	-0.15	12.011
3380	CB	220	MPD1	C5	1	-0.15	12.011
3381	HCMM	220	MPD1	H	1	0.15	1.0079
3382	HCMM	220	MPD1	H1	1	0.15	1.0079
3383	HCMM	220	MPD1	H2	1	0.15	1.0079
3384	HCMM	220	MPD1	H3	1	0.15	1.0079
3385	NC=O	220	MPD1	N	1	-0.547	14.0067
3386	HNCO	220	MPD1	H5	1	0.37	1.0079
3387	NC=C	220	MPD1	N1	1	-0.9	14.0067
3388	HNCO	220	MPD1	H6	1	0.4	1.0079
3389	HNCO	220	MPD1	H7	1	0.4	1.0079
3390	CB	221	MPD1	C	1	-0.15	12.011
3391	CB	221	MPD1	C1	1	0.1	12.011
3392	CB	221	MPD1	C2	1	-0.15	12.011
3393	CB	221	MPD1	C3	1	0.117	12.011
3394	CB	221	MPD1	C4	1	-0.15	12.011
3395	CB	221	MPD1	C5	1	-0.15	12.011
3396	HCMM	221	MPD1	H	1	0.15	1.0079
3397	HCMM	221	MPD1	H1	1	0.15	1.0079
3398	HCMM	221	MPD1	H2	1	0.15	1.0079
3399	HCMM	221	MPD1	H3	1	0.15	1.0079
3400	NC=O	221	MPD1	N	1	-0.547	14.0067
3401	HNCO	221	MPD1	H5	1	0.37	1.0079
3402	NC=C	221	MPD1	N1	1	-0.9	14.0067
3403	HNCO	221	MPD1	H6	1	0.4	1.0079
3404	HNCO	221	MPD1	H7	1	0.4	1.0079
3405	CB	222	MPD1	C	1	-0.15	12.011
3406	CB	222	MPD1	C1	1	0.1	12.011
3407	CB	222	MPD1	C2	1	-0.15	12.011
3408	CB	222	MPD1	C3	1	0.117	12.011
3409	CB	222	MPD1	C4	1	-0.15	12.011
3410	CB	222	MPD1	C5	1	-0.15	12.011
3411	HCMM	222	MPD1	H	1	0.15	1.0079
3412	HCMM	222	MPD1	H1	1	0.15	1.0079
3413	HCMM	222	MPD1	H2	1	0.15	1.0079
3414	HCMM	222	MPD1	H3	1	0.15	1.0079
3415	NC=O	222	MPD1	N	1	-0.547	14.0067
3416	HNCO	222	MPD1	H5	1	0.37	1.0079
3417	NC=C	222	MPD1	N1	1	-0.9	14.0067
3418	HNCO	222	MPD1	H6	1	0.4	1.0079
3419	HNCO	222	MPD1	H7	1	0.4	1.0079
3420	CB	223	MPD1	C	1	-0.15	12.011
3421	CB	223	MPD1	C1	1	0.1	12.011
3422	CB	223	MPD1	C2	1	-0.15	12.011
3423	CB	223	MPD1	C3	1	0.117	12.011
3424	CB	223	MPD1	C4	1	-0.15	12.011
3425	CB	223	MPD1	C5	1	-0.15	12.011
3426	HCMM	223	MPD1	H	1	0.15	1.0079
3427	HCMM	223	MPD1	H1	1	0.15	1.0079
3428	HCMM	223	MPD1	H2	1	0.15	1.0079
3429	HCMM	223	MPD1	H3	1	0.15	1.0079
3430	NC=O	223	MPD1	N	1	-0.547	14.0067
3431	HNCO	223	MPD1	H5	1	0.37	1.0079
3432	NC=C	223	MPD1	N1	1	-0.9	14.0067
3433	HNCO	223	MPD1	H6	1	0.4	1.0079
3434	HNCO	223	MPD1	H7	1	0.4	1.0079
3435	CB	224	MPD1	C	1	-0.15	12.011
3436	CB	224	MPD1	C1	1	0.1	12.011
3437	CB	224	MPD1	C2	1	-0.15	12.011
3438	CB	224	MPD1	C3	1	0.117	12.011
3439	CB	224	MPD1	C4	1	-0.15	12.011
3440	CB	224	MPD1	C5	1	-0.15	12.011
3441	HCMM	224	MPD1	H	1	0.15	1.0079
3442	HCMM	224	MPD1	H1	1	0.15	1.0079
3443	HCMM	224	MPD1	H2	1	0.15	1.0079
3444	HCMM	224	MPD1	H3	1	0.15	1.0079
3445	NC=O	224	MPD1	N	1	-0.547	14.0067
3446	HNCO	224	MPD1	H5	1	0.37	1.0079
3447	NC=C	224	MPD1	N1	1	-0.9	14.0067
3448	HNCO	224	MPD1	H6	1	0.4	1.0079
3449	HNCO	224	MPD1	H7	1	0.4	1.0079
3450	CB	225	MPD1	C	1	-0.15	12.011
3451	CB	225	MPD1	C1	1	0.1	12.011
3452	CB	225	MPD1	C2	1	-0.15	12.011
3453	CB	225	MPD1	C3	1	0.117	12.011
3454	CB	225	MPD1	C4	1	-0.15	12.011
3455	CB	225	MPD1	C5	1	-0.15	12.011
3456	HCMM	225	MPD1	H	1	0.15	1.0079
3457	HCMM	225	MPD1	H1	1	0.15	1.0079
3458	HCMM	225	MPD1	H2	1	0.15	1.0079
3459	HCMM	225	MPD1	H3	1	0.15	1.0079
3460	NC=O	225	MPD1	N	1	-0.547	14.0067
3461	HNCO	225	MPD1	H5	1	0.37	1.0079
3462	NC=C	225	MPD1	N1	1	-0.9	14.0067
3463	HNCO	225	MPD1	H6	1	0.4	1.0079
3464	HNCO	225	MPD1	H7	1	0.4	1.0079
3465	CB	226	MPD1	C	1	-0.15	12.011
3466	CB	226	MPD1	C1	1	0.1	12.011
3467	CB	226	MPD1	C2	1	-0.15	12.011
3468	CB	226	MPD1	C3	1	0.117	12.011
3469	CB	226	MPD1	C4	1	-0.15	12.011
3470	CB	226	MPD1	C5	1	-0.15	12.011
3471	HCMM	226	MPD1	H	1	0.15	1.0079
3472	HCMM	226	MPD1	H1	1	0.15	1.0079
3473	HCMM	226	MPD1	H2	1	0.15	1.0079
3474	HCMM	226	MPD1	H3	1	0.15	1.0079
3475	NC=O	226	MPD1	N	1	-0.547	14.0067
3476	HNCO	226	MPD1	H5	1	0.37	1.0079
3477	NC=C	226	MPD1	N1	1	-0.9	14.0067
3478	HNCO	226	MPD1	H6	1	0.4	1.0079
3479	HNCO	226	MPD1	H7	1	0.4	1.0079
3480	CB	227	MPD1	C	1	-0.15	12.011
3481	CB	227	MPD1	C1	1	0.1	12.011
3482	CB	227	MPD1	C2	1	-0.15	12.011
3483	CB	227	MPD1	C3	1	0.117	12.011
3484	CB	227	MPD1	C4	1	-0.15	12.011
3485	CB	227	MPD1	C5	1	-0.15	12.011
3486	HCMM	227	MPD1	H	1	0.15	1.0079
3487	HCMM	227	MPD1	H1	1	0.15	1.0079
3488	HCMM	227	MPD1	H2	1	0.15	1.0079
3489	HCMM	227	MPD1	H3	1	0.15	1.0079
3490	NC=O	227	MPD1	N	1	-0.547	14.0067
3491	HNCO	227	MPD1	H5	1	0.37	1.0079
3492	NC=C	227	MPD1	N1	1	-0.9	14.0067
3493	HNCO	227	MPD1	H6	1	0.4	1.0079
3494	HNCO	227	MPD1	H7	1	0.4	1.0079
3495	CB	228	MPD1	C	1	-0.15	12.011
3496	CB	228	MPD1	C1	1	0.1	12.011
3497	CB	228	MPD1	C2	1	-0.15	12.011
3498	CB	228	MPD1	C3	1	0.117	12.011
3499	CB	228	MPD1	C4	1	-0.15	12.011
3500	CB	228	MPD1	C5	1	-0.15	12.011
3501	HCMM	228	MPD1	H	1	0.15	1.0079
3502	HCMM	228	MPD1	H1	1	0.15	1.0079
3503	HCMM	228	MPD1	H2	1	0.15	1.0079
3504	HCMM	228	MPD1	H3	1	0.15	1.0079
3505	NC=O	228	MPD1	N	1	-0.547	14.0067
3506	HNCO	228	MPD1	H5	1	0.37	1.0079
3507	NC=C	228	MPD1	N1	1	-0.9	14.0067
3508	HNCO	228	MPD1	H6	1	0.4	1.0079
3509	HNCO	228	MPD1	H7	1	0.4	1.0079
3510	CB	229	MPD1	C	1	-0.15	12.011
3511	CB	229	MPD1	C1	1	0.1	12.011
3512	CB	229	MPD1	C2	1	-0.15	12.011
3513	CB	229	MPD1	C3	1	0.117	12.011
3514	CB	229	MPD1	C4	1	-0.15	12.011
3515	CB	229	MPD1	C5	1	-0.15	12.011
3516	HCMM	229	MPD1	H	1	0.15	1.0079
3517	HCMM	229	MPD1	H1	1	0.15	1.0079
3518	HCMM	229	MPD1	H2	1	0.15	1.0079
3519	HCMM	229	MPD1	H3	1	0.15	1.0079
3520	NC=O	229	MPD1	N	1	-0.547	14.0067
3521	HNCO	229	MPD1	H5	1	0.37	1.0079
3522	NC=C	229	MPD1	N1	1	-0.9	14.0067
3523	HNCO	229	MPD1	H6	1	0.4	1.0079
3524	HNCO	229	MPD1	H7	1	0.4	1.0079
3525	CB	230	MPD1	C	1	-0.15	12.011
3526	CB	230	MPD1	C1	1	0.1	12.011
3527	CB	230	MPD1	C2	1	-0.15	12.011
3528	CB	230	MPD1	C3	1	0.117	12.011
3529	CB	230	MPD1	C4	1	-0.15	12.011
3530	CB	230	MPD1	C5	1	-0.15	12.011
3531	HCMM	230	MPD1	H	1	0.15	1.0079
3532	HCMM	230	MPD1	H1	1	0.15	1.0079
3533	HCMM	230	MPD1	H2	1	0.15	1.0079
3534	HCMM	230	MPD1	H3	1	0.15	1.0079
3535	NC=O	230	MPD1	N	1	-0.547	14.0067
3536	HNCO	230	MPD1	H5	1	0.37	1.0079
3537	NC=C	230	MPD1	N1	1	-0.9	14.0067
3538	HNCO	230	MPD1	H6	1	0.4	1.0079
3539	HNCO	230	MPD1	H7	1	0.4	1.0079
3540	CB	231	MPD1	C	1	-0.15	12.011
3541	CB	231	MPD1	C1	1	0.1	12.011
3542	CB	231	MPD1	C2	1	-0.15	12.011
3543	CB	231	MPD1	C3	1	0.117	12.011
3544	CB	231	MPD1	C4	1	-0.15	12.011
3545	CB	231	MPD1	C5	1	-0.15	12.011
3546	HCMM	231	MPD1	H	1	0.15	1.0079
3547	HCMM	231	MPD1	H1	1	0.15	1.0079
3548	HCMM	231	MPD1	H2	1	0.15	1.0079
3549	HCMM	231	MPD1	H3	1	0.15	1.0079
3550	NC=O	231	MPD1	N	1	-0.547	14.0067
3551	HNCO	231	MPD1	H5	1	0.37	1.0079
3552	NC=C	231	MPD1	N1	1	-0.9	14.0067
3553	HNCO	231	MPD1	H6	1	0.4	1.0079
3554	HNCO	231	MPD1	H7	1	0.4	1.0079
3555	CB	232	MPD1	C	1	-0.15	12.011
3556	CB	232	MPD1	C1	1	0.1	12.011
3557	CB	232	MPD1	C2	1	-0.15	12.011
3558	CB	232	MPD1	C3	1	0.117	12.011
3559	CB	232	MPD1	C4	1	-0.15	12.011
3560	CB	232	MPD1	C5	1	-0.15	12.011
3561	HCMM	232	MPD1	H	1	0.15	1.0079
3562	HCMM	232	MPD1	H1	1	0.15	1.0079
3563	HCMM	232	MPD1	H2	1	0.15	1.0079
3564	HCMM	232	MPD1	H3	1	0.15	1.0079
3565	NC=O	232	MPD1	N	1	-0.547	14.0067
3566	HNCO	232	MPD1	H5	1	0.37	1.0079
3567	NC=C	232	MPD1	N1	1	-0.9	14.0067
3568	HNCO	232	MPD1	H6	1	0.4	1.0079
3569	HNCO	232	MPD1	H7	1	0.4	1.0079
3570	CB	233	MPD1	C	1	-0.15	12.011
3571	CB	233	MPD1	C1	1	0.1	12.011
3572	CB	233	MPD1	C2	1	-0.15	12.011
3573	CB	233	MPD1	C3	1	0.117	12.011
3574	CB	233	MPD1	C4	1	-0.15	12.011
3575	CB	233	MPD1	C5	1	-0.15	12.011
3576	HCMM	233	MPD1	H	1	0.15	1.0079
3577	HCMM	233	MPD1	H1	1	0.15	1.0079
3578	HCMM	233	MPD1	H2	1	0.15	1.0079
3579	HCMM	233	MPD1	H3	1	0.15	1.0079
3580	NC=O	233	MPD1	N	1	-0.547	14.0067
3581	HNCO	233	MPD1	H5	1	0.37	1.0079
3582	NC=C	233	MPD1	N1	1	-0.9	14.0067
3583	HNCO	233	MPD1	H6	1	0.4	1.0079
3584	HNCO	233	MPD1	H7	1	0.4	1.0079
3585	CB	234	MPD1	C	1	-0.15	12.011
3586	CB	234	MPD1	C1	1	0.1	12.011
3587	CB	234	MPD1	C2	1	-0.15	12.011
3588	CB	234	MPD1	C3	1	0.117	12.011
3589	CB	234	MPD1	C4	1	-0.15	12.011
3590	CB	234	MPD1	C5	1	-0.15	12.011
3591	HCMM	234	MPD1	H	1	0.15	1.0079
3592	HCMM	234	MPD1	H1	1	0.15	1.0079
3593	HCMM	234	MPD1	H2	1	0.15	1.0079
3594	HCMM	234	MPD1	H3	1	0.15	1.0079
3595	NC=O	234	MPD1	N	1	-0.547	14.0067
3596	HNCO	234	MPD1	H5	1	0.37	1.0079
3597	NC=C	234	MPD1	N1	1	-0.9	14.0067
3598	HNCO	234	MPD1	H6	1	0.4	1.0079
3599	HNCO	234	MPD1	H7	1	0.4	1.0079
3600	CB	235	MPD1	C	1	-0.15	12.011
3601	CB	235	MPD1	C1	1	0.1	12.011
3602	CB	235	MPD1	C2	1	-0.15	12.011
3603	CB	235	MPD1	C3	1	0.117	12.011
3604	CB	235	MPD1	C4	1	-0.15	12.011
3605	CB	235	MPD1	C5	1	-0.15	12.011
3606	HCMM	235	MPD1	H	1	0.15	1.0079
3607	HCMM	235	MPD1	H1	1	0.15	1.0079
3608	HCMM	235	MPD1	H2	1	0.15	1.0079
3609	HCMM	235	MPD1	H3	1	0.15	1.0079
3610	NC=O	235	MPD1	N	1	-0.547	14.0067
3611	HNCO	235	MPD1	H5	1	0.37	1.0079
3612	NC=C	235	MPD1	N1	1	-0.9	14.0067
3613	HNCO	235	MPD1	H6	1	0.4	1.0079
3614	HNCO	235	MPD1	H7	1	0.4	1.0079
3615	CB	236	MPD1	C	1	-0.15	12.011
3616	CB	236	MPD1	C1	1	0.1	12.011
3617	CB	236	MPD1	C2	1	-0.15	12.011
3618	CB	236	MPD1	C3	1	0.117	12.011
3619	CB	236	MPD1	C4	1	-0.15	12.011
3620	CB	236	MPD1	C5	1	-0.15	12.011
3621	HCMM	236	MPD1	H	1	0.15	1.0079
3622	HCMM	236	MPD1	H1	1	0.15	1.0079
3623	HCMM	236	MPD1	H2	1	0.15	1.0079
3624	HCMM	236	MPD1	H3	1	0.15	1.0079
3625	NC=O	236	MPD1	N	1	-0.547	14.0067
3626	HNCO	236	MPD1	H5	1	0.37	1.0079
3627	NC=C	236	MPD1	N1	1	-0.9	14.0067
3628	HNCO	236	MPD1	H6	1	0.4	1.0079
3629	HNCO	236	MPD1	H7	1	0.4	1.0079
3630	CB	237	MPD1	C	1	-0.15	12.011
3631	CB	237	MPD1	C1	1	0.1	12.011
3632	CB	237	MPD1	C2	1	-0.15	12.011
3633	CB	237	MPD1	C3	1	0.117	12.011
3634	CB	237	MPD1	C4	1	-0.15	12.011
3635	CB	237	MPD1	C5	1	-0.15	12.011
3636	HCMM	237	MPD1	H	1	0.15	1.0079
3637	HCMM	237	MPD1	H1	1	0.15	1.0079
3638	HCMM	237	MPD1	H2	1	0.15	1.0079
3639	HCMM	237	MPD1	H3	1	0.15	1.0079
3640	NC=O	237	MPD1	N	1	-0.547	14.0067
3641	HNCO	237	MPD1	H5	1	0.37	1.0079
3642	NC=C	237	MPD1	N1	1	-0.9	14.0067
3643	HNCO	237	MPD1	H6	1	0.4	1.0079
3644	HNCO	237	MPD1	H7	1	0.4	1.0079
3645	CB	238	MPD1	C	1	-0.15	12.011
3646	CB	238	MPD1	C1	1	0.1	12.011
3647	CB	238	MPD1	C2	1	-0.15	12.011
3648	CB	238	MPD1	C3	1	0.117	12.011
3649	CB	238	MPD1	C4	1	-0.15	12.011
3650	CB	238	MPD1	C5	1	-0.15	12.011
3651	HCMM	238	MPD1	H	1	0.15	1.0079
3652	HCMM	238	MPD1	H1	1	0.15	1.0079
3653	HCMM	238	MPD1	H2	1	0.15	1.0079
3654	HCMM	238	MPD1	H3	1	0.15	1.0079
3655	NC=O	238	MPD1	N	1	-0.547	14.0067
3656	HNCO	238	MPD1	H5	1	0.37	1.0079
3657	NC=C	238	MPD1	N1	1	-0.9	14.0067
3658	HNCO	238	MPD1	H6	1	0.4	1.0079
3659	HNCO	238	MPD1	H7	1	0.4	1.0079
3660	CB	239	MPD1	C	1	-0.15	12.011
3661	CB	239	MPD1	C1	1	0.1	12.011
3662	CB	239	MPD1	C2	1	-0.15	12.011
3663	CB	239	MPD1	C3	1	0.117	12.011
3664	CB	239	MPD1	C4	1	-0.15	12.011
3665	CB	239	MPD1	C5	1	-0.15	12.011
3666	HCMM	239	MPD1	H	1	0.15	1.0079
3667	HCMM	239	MPD1	H1	1	0.15	1.0079
3668	HCMM	239	MPD1	H2	1	0.15	1.0079
3669	HCMM	239	MPD1	H3	1	0.15	1.0079
3670	NC=O	239	MPD1	N	1	-0.547	14.0067
3671	HNCO	239	MPD1	H5	1	0.37	1.0079
3672	NC=C	239	MPD1	N1	1	-0.9	14.0067
3673	HNCO	239	MPD1	H6	1	0.4	1.0079
3674	HNCO	239	MPD1	H7	1	0.4	1.0079
3675	CB	240	MPD1	C	1	-0.15	12.011
3676	CB	240	MPD1	C1	1	0.1	12.011
3677	CB	240	MPD1	C2	1	-0.15	12.011
3678	CB	240	MPD1	C3	1	0.117	12.011
3679	CB	240	MPD1	C4	1	-0.15	12.011
3680	CB	240	MPD1	C5	1	-0.15	12.011
3681	HCMM	240	MPD1	H	1	0.15	1.0079
3682	HCMM	240	MPD1	H1	1	0.15	1.0079
3683	HCMM	240	MPD1	H2	1	0.15	1.0079
3684	HCMM	240	MPD1	H3	1	0.15	1.0079
3685	NC=O	240	MPD1	N	1	-0.547	14.0067
3686	HNCO	240	MPD1	H5	1	0.37	1.0079
3687	NC=C	240	MPD1	N1	1	-0.9	14.0067
3688	HNCO	240	MPD1	H6	1	0.4	1.0079
3689	HNCO	240	MPD1	H7	1	0.4	1.0079
3690	CB	241	MPD1	C	1	-0.15	12.011
3691	CB	241	MPD1	C1	1	0.1	12.011
3692	CB	241	MPD1	C2	1	-0.15	12.011
3693	CB	241	MPD1	C3	1	0.117	12.011
3694	CB	241	MPD1	C4	1	-0.15	12.011
3695	CB	241	MPD1	C5	1	-0.15	12.011
3696	HCMM	241	MPD1	H	1	0.15	1.0079
3697	HCMM	241	MPD1	H1	1	0.15	1.0079
3698	HCMM	241	MPD1	H2	1	0.15	1.0079
3699	HCMM	241	MPD1	H3	1	0.15	1.0079
3700	NC=O	241	MPD1	N	1	-0.547	14.0067
3701	HNCO	241	MPD1	H5	1	0.37	1.0079
3702	NC=C	241	MPD1	N1	1	-0.9	14.0067
3703	HNCO	241	MPD1	H6	1	0.4	1.0079
3704	HNCO	241	MPD1	H7	1	0.4	1.0079
3705	CB	242	MPD1	C	1	-0.15	12.011
3706	CB	242	MPD1	C1	1	0.1	12.011
3707	CB	242	MPD1	C2	1	-0.15	12.011
3708	CB	242	MPD1	C3	1	0.117	12.011
3709	CB	242	MPD1	C4	1	-0.15	12.011
3710	CB	242	MPD1	C5	1	-0.15	12.011
3711	HCMM	242	MPD1	H	1	0.15	1.0079
3712	HCMM	242	MPD1	H1	1	0.15	1.0079
3713	HCMM	242	MPD1	H2	1	0.15	1.0079
3714	HCMM	242	MPD1	H3	1	0.15	1.0079
3715	NC=O	242	MPD1	N	1	-0.547	14.0067
3716	HNCO	242	MPD1	H5	1	0.37	1.0079
3717	NC=C	242	MPD1	N1	1	-0.9	14.0067
3718	HNCO	242	MPD1	H6	1	0.4	1.0079
3719	HNCO	242	MPD1	H7	1	0.4	1.0079
3720	CB	243	MPD1	C	1	-0.15	12.011
3721	CB	243	MPD1	C1	1	0.1	12.011
3722	CB	243	MPD1	C2	1	-0.15	12.011
3723	CB	243	MPD1	C3	1	0.117	12.011
3724	CB	243	MPD1	C4	1	-0.15	12.011
3725	CB	243	MPD1	C5	1	-0.15	12.011
3726	HCMM	243	MPD1	H	1	0.15	1.0079
3727	HCMM	243	MPD1	H1	1	0.15	1.0079
3728	HCMM	243	MPD1	H2	1	0.15	1.0079
3729	HCMM	243	MPD1	H3	1	0.15	1.0079
3730	NC=O	243	MPD1	N	1	-0.547	14.0067
3731	HNCO	243	MPD1	H5	1	0.37	1.0079
3732	NC=C	243	MPD1	N1	1	-0.9	14.0067
3733	HNCO	243	MPD1	H6	1	0.4	1.0079
3734	HNCO	243	MPD1	H7	1	0.4	1.0079
3735	CB	244	MPD1	C	1	-0.15	12.011
3736	CB	244	MPD1	C1	1	0.1	12.011
3737	CB	244	MPD1	C2	1	-0.15	12.011
3738	CB	244	MPD1	C3	1	0.117	12.011
3739	CB	244	MPD1	C4	1	-0.15	12.011
3740	CB	244	MPD1	C5	1	-0.15	12.011
3741	HCMM	244	MPD1	H	1	0.15	1.0079
3742	HCMM	244	MPD1	H1	1	0.15	1.0079
3743	HCMM	244	MPD1	H2	1	0.15	1.0079
3744	HCMM	244	MPD1	H3	1	0.15	1.0079
3745	NC=O	244	MPD1	N	1	-0.547	14.0067
3746	HNCO	244	MPD1	H5	1	0.37	1.0079
3747	NC=C	244	MPD1	N1	1	-0.9	14.0067
3748	HNCO	244	MPD1	H6	1	0.4	1.0079
3749	HNCO	244	MPD1	H7	1	0.4	1.0079
3750	CB	245	MPD1	C	1	-0.15	12.011
3751	CB	245	MPD1	C1	1	0.1	12.011
3752	CB	245	MPD1	C2	1	-0.15	12.011
3753	CB	245	MPD1	C3	1	0.117	12.011
3754	CB	245	MPD1	C4	1	-0.15	12.011
3755	CB	245	MPD1	C5	1	-0.15	12.011
3756	HCMM	245	MPD1	H	1	0.15	1.0079
3757	HCMM	245	MPD1	H1	1	0.15	1.0079
3758	HCMM	245	MPD1	H2	1	0.15	1.0079
3759	HCMM	245	MPD1	H3	1	0.15	1.0079
3760	NC=O	245	MPD1	N	1	-0.547	14.0067
3761	HNCO	245	MPD1	H5	1	0.37	1.0079
3762	NC=C	245	MPD1	N1	1	-0.9	14.0067
3763	HNCO	245	MPD1	H6	1	0.4	1.0079
3764	HNCO	245	MPD1	H7	1	0.4	1.0079
3765	CB	246	MPD1	C	1	-0.15	12.011
3766	CB	246	MPD1	C1	1	0.1	12.011
3767	CB	246	MPD1	C2	1	-0.15	12.011
3768	CB	246	MPD1	C3	1	0.117	12.011
3769	CB	246	MPD1	C4	1	-0.15	12.011
3770	CB	246	MPD1	C5	1	-0.15	12.011
3771	HCMM	246	MPD1	H	1	0.15	1.0079
3772	HCMM	246	MPD1	H1	1	0.15	1.0079
3773	HCMM	246	MPD1	H2	1	0.15	1.0079
3774	HCMM	246	MPD1	H3	1	0.15	1.0079
3775	NC=O	246	MPD1	N	1	-0.547	14.0067
3776	HNCO	246	MPD1	H5	1	0.37	1.0079
3777	NC=C	246	MPD1	N1	1	-0.9	14.0067
3778	HNCO	246	MPD1	H6	1	0.4	1.0079
3779	HNCO	246	MPD1	H7	1	0.4	1.0079
3780	CB	247	MPD1	C	1	-0.15	12.011
3781	CB	247	MPD1	C1	1	0.1	12.011
3782	CB	247	MPD1	C2	1	-0.15	12.011
3783	CB	247	MPD1	C3	1	0.117	12.011
3784	CB	247	MPD1	C4	1	-0.15	12.011
3785	CB	247	MPD1	C5	1	-0.15	12.011
3786	HCMM	247	MPD1	H	1	0.15	1.0079
3787	HCMM	247	MPD1	H1	1	0.15	1.0079
3788	HCMM	247	MPD1	H2	1	0.15	1.0079
3789	HCMM	247	MPD1	H3	1	0.15	1.0079
3790	NC=O	247	MPD1	N	1	-0.547	14.0067
3791	HNCO	247	MPD1	H5	1	0.37	1.0079
3792	NC=C	247	MPD1	N1	1	-0.9	14.0067
3793	HNCO	247	MPD1	H6	1	0.4	1.0079
3794	HNCO	247	MPD1	H7	1	0.4	1.0079
3795	CB	248	MPD1	C	1	-0.15	12.011
3796	CB	248	MPD1	C1	1	0.1	12.011
3797	CB	248	MPD1	C2	1	-0.15	12.011
3798	CB	248	MPD1	C3	1	0.117	12.011
3799	CB	248	MPD1	C4	1	-0.15	12.011
3800	CB	248	MPD1	C5	1	-0.15	12.011
3801	HCMM	248	MPD1	H	1	0.15	1.0079
3802	HCMM	248	MPD1	H1	1	0.15	1.0079
3803	HCMM	248	MPD1	H2	1	0.15	1.0079
3804	HCMM	248	MPD1	H3	1	0.15	1.0079
3805	NC=O	248	MPD1	N	1	-0.547	14.0067
3806	HNCO	248	MPD1	H5	1	0.37	1.0079
3807	NC=C	248	MPD1	N1	1	-0.9	14.0067
3808	HNCO	248	MPD1	H6	1	0.4	1.0079
3809	HNCO	248	MPD1	H7	1	0.4	1.0079
3810	CB	249	MPD1	C	1	-0.15	12.011
3811	CB	249	MPD1	C1	1	0.1	12.011
3812	CB	249	MPD1	C2	1	-0.15	12.011
3813	CB	249	MPD1	C3	1	0.117	12.011
3814	CB	249	MPD1	C4	1	-0.15	12.011
3815	CB	249	MPD1	C5	1	-0.15	12.011
3816	HCMM	249	MPD1	H	1	0.15	1.0079
3817	HCMM	249	MPD1	H1	1	0.15	1.0079
3818	HCMM	249	MPD1	H2	1	0.15	1.0079
3819	HCMM	249	MPD1	H3	1	0.15	1.0079
3820	NC=O	249	MPD1	N	1	-0.547	14.0067
3821	HNCO	249	MPD1	H5	1	0.37	1.0079
3822	NC=C	249	MPD1	N1	1	-0.9	14.0067
3823	HNCO	249	MPD1	H6	1	0.4	1.0079
3824	HNCO	249	MPD1	H7	1	0.4	1.0079
3825	CB	250	MPD2	C	1	-0.15	12.011
3826	CB	250	MPD2	C1	1	0.117	12.011
3827	CB	250	MPD2	C2	1	-0.15	12.011
3828	CB	250	MPD2	C3	1	0.117	12.011
3829	CB	250	MPD2	C4	1	-0.15	12.011
3830	CB	250	MPD2	C5	1	-0.15	12.011
3831	HCMM	250	MPD2	H	1	0.15	1.0079
3832	HCMM	250	MPD2	H1	1	0.15	1.0079
3833	HCMM	250	MPD2	H2	1	0.15	1.0079
3834	HCMM	250	MPD2	H3	1	0.15	1.0079
3835	NC=O	250	MPD2	N	1	-0.547	14.0067
3836	HNCO	250	MPD2	H5	1	0.37	1.0079
3837	NC=O	250	MPD2	N1	1	-0.547	14.0067
3838	HNCO	250	MPD2	H7	1	0.37	1.0079
3839	CB	251	TMC3	C1	1	0.0862	12.011
3840	CB	251	TMC3	C2	1	-0.15	12.011
3841	CB	251	TMC3	C3	1	0.0862	12.011
3842	CB	251	TMC3	C4	1	-0.15	12.011
3843	CB	251	TMC3	C5	1	0.0862	12.011
3844	CB	251	TMC3	C6	1	-0.15	12.011
3845	C=O	251	TMC3	C	1	0.5438	12.011
3846	O=C	251	TMC3	O	1	-0.57	15.9994
3847	HCMM	251	TMC3	H	1	0.15	1.0079
3848	HCMM	251	TMC3	H1	1	0.15	1.0079
3849	HCMM	251	TMC3	H2	1	0.15	1.0079
3850	C=O	251	TMC3	C7	1	0.5438	12.011
3851	C=O	251	TMC3	C8	1	0.5438	12.011
3852	O=C	251	TMC3	O1	1	-0.57	15.9994
3853	O=C	251	TMC3	O2	1	-0.57	15.9994
3854	CB	252	TMC3	C1	1	0.0862	12.011
3855	CB	252	TMC3	C2	1	-0.15	12.011
3856	CB	252	TMC3	C3	1	0.0862	12.011
3857	CB	252	TMC3	C4	1	-0.15	12.011
3858	CB	252	TMC3	C5	1	0.0862	12.011
3859	CB	252	TMC3	C6	1	-0.15	12.011
3860	C=O	252	TMC3	C	1	0.5438	12.011
3861	O=C	252	TMC3	O	1	-0.57	15.9994
3862	HCMM	252	TMC3	H	1	0.15	1.0079
3863	HCMM	252	TMC3	H1	1	0.15	1.0079
3864	HCMM	252	TMC3	H2	1	0.15	1.0079
3865	C=O	252	TMC3	C7	1	0.5438	12.011
3866	C=O	252	TMC3	C8	1	0.5438	12.011
3867	O=C	252	TMC3	O1	1	-0.57	15.9994
3868	O=C	252	TMC3	O2	1	-0.57	15.9994
3869	CB	253	MPD2	C	1	-0.15	12.011
3870	CB	253	MPD2	C1	1	0.117	12.011
3871	CB	253	MPD2	C2	1	-0.15	12.011
3872	CB	253	MPD2	C3	1	0.117	12.011
3873	CB	253	MPD2	C4	1	-0.15	12.011
3874	CB	253	MPD2	C5	1	-0.15	12.011
3875	HCMM	253	MPD2	H	1	0.15	1.0079
3876	HCMM	253	MPD2	H1	1	0.15	1.0079
3877	HCMM	253	MPD2	H2	1	0.15	1.0079
3878	HCMM	253	MPD2	H3	1	0.15	1.0079
3879	NC=O	253	MPD2	N	1	-0.547	14.0067
3880	HNCO	253	MPD2	H5	1	0.37	1.0079
3881	NC=O	253	MPD2	N1	1	-0.547	14.0067
3882	HNCO	253	MPD2	H7	1	0.37	1.0079
3883	CB	254	TMC3	C1	1	0.0862	12.011
3884	CB	254	TMC3	C2	1	-0.15	12.011
3885	CB	254	TMC3	C3	1	0.0862	12.011
3886	CB	254	TMC3	C4	1	-0.15	12.011
3887	CB	254	TMC3	C5	1	0.0862	12.011
3888	CB	254	TMC3	C6	1	-0.15	12.011
3889	C=O	254	TMC3	C	1	0.5438	12.011
3890	O=C	254	TMC3	O	1	-0.57	15.9994
3891	HCMM	254	TMC3	H	1	0.15	1.0079
3892	HCMM	254	TMC3	H1	1	0.15	1.0079
3893	HCMM	254	TMC3	H2	1	0.15	1.0079
3894	C=O	254	TMC3	C7	1	0.5438	12.011
3895	C=O	254	TMC3	C8	1	0.5438	12.011
3896	O=C	254	TMC3	O1	1	-0.57	15.9994
3897	O=C	254	TMC3	O2	1	-0.57	15.9994
3898	CB	255	MPD2	C	1	-0.15	12.011
3899	CB	255	MPD2	C1	1	0.117	12.011
3900	CB	255	MPD2	C2	1	-0.15	12.011
3901	CB	255	MPD2	C3	1	0.117	12.011
3902	CB	255	MPD2	C4	1	-0.15	12.011
3903	CB	255	MPD2	C5	1	-0.15	12.011
3904	HCMM	255	MPD2	H	1	0.15	1.0079
3905	HCMM	255	MPD2	H1	1	0.15	1.0079
3906	HCMM	255	MPD2	H2	1	0.15	1.0079
3907	HCMM	255	MPD2	H3	1	0.15	1.0079
3908	NC=O	255	MPD2	N	1	-0.547	14.0067
3909	HNCO	255	MPD2	H5	1	0.37	1.0079
3910	NC=O	255	MPD2	N1	1	-0.547	14.0067
3911	HNCO	255	MPD2	H7	1	0.37	1.0079
3912	CB	256	TMC3	C1	1	0.0862	12.011
3913	CB	256	TMC3	C2	1	-0.15	12.011
3914	CB	256	TMC3	C3	1	0.0862	12.011
3915	CB	256	TMC3	C4	1	-0.15	12.011
3916	CB	256	TMC3	C5	1	0.0862	12.011
3917	CB	256	TMC3	C6	1	-0.15	12.011
3918	C=O	256	TMC3	C	1	0.5438	12.011
3919	O=C	256	TMC3	O	1	-0.57	15.9994
3920	HCMM	256	TMC3	H	1	0.15	1.0079
3921	HCMM	256	TMC3	H1	1	0.15	1.0079
3922	HCMM	256	TMC3	H2	1	0.15	1.0079
3923	C=O	256	TMC3	C7	1	0.5438	12.011
3924	C=O	256	TMC3	C8	1	0.5438	12.011
3925	O=C	256	TMC3	O1	1	-0.57	15.9994
3926	O=C	256	TMC3	O2	1	-0.57	15.9994
3927	CB	257	MPD2	C	1	-0.15	12.011
3928	CB	257	MPD2	C1	1	0.117	12.011
3929	CB	257	MPD2	C2	1	-0.15	12.011
3930	CB	257	MPD2	C3	1	0.117	12.011
3931	CB	257	MPD2	C4	1	-0.15	12.011
3932	CB	257	MPD2	C5	1	-0.15	12.011
3933	HCMM	257	MPD2	H	1	0.15	1.0079
3934	HCMM	257	MPD2	H1	1	0.15	1.0079
3935	HCMM	257	MPD2	H2	1	0.15	1.0079
3936	HCMM	257	MPD2	H3	1	0.15	1.0079
3937	NC=O	257	MPD2	N	1	-0.547	14.0067
3938	HNCO	257	MPD2	H5	1	0.37	1.0079
3939	NC=O	257	MPD2	N1	1	-0.547	14.0067
3940	HNCO	257	MPD2	H7	1	0.37	1.0079
3941	CB	258	TMC3	C1	1	0.0862	12.011
3942	CB	258	TMC3	C2	1	-0.15	12.011
3943	CB	258	TMC3	C3	1	0.0862	12.011
3944	CB	258	TMC3	C4	1	-0.15	12.011
3945	CB	258	TMC3	C5	1	0.0862	12.011
3946	CB	258	TMC3	C6	1	-0.15	12.011
3947	C=O	258	TMC3	C	1	0.5438	12.011
3948	O=C	258	TMC3	O	1	-0.57	15.9994
3949	HCMM	258	TMC3	H	1	0.15	1.0079
3950	HCMM	258	TMC3	H1	1	0.15	1.0079
3951	HCMM	258	TMC3	H2	1	0.15	1.0079
3952	C=O	258	TMC3	C7	1	0.5438	12.011
3953	C=O	258	TMC3	C8	1	0.5438	12.011
3954	O=C	258	TMC3	O1	1	-0.57	15.9994
3955	O=C	258	TMC3	O2	1	-0.57	15.9994
3956	CB	259	MPD2	C	1	-0.15	12.011
3957	CB	259	MPD2	C1	1	0.117	12.011
3958	CB	259	MPD2	C2	1	-0.15	12.011
3959	CB	259	MPD2	C3	1	0.117	12.011
3960	CB	259	MPD2	C4	1	-0.15	12.011
3961	CB	259	MPD2	C5	1	-0.15	12.011
3962	HCMM	259	MPD2	H	1	0.15	1.0079
3963	HCMM	259	MPD2	H1	1	0.15	1.0079
3964	HCMM	259	MPD2	H2	1	0.15	1.0079
3965	HCMM	259	MPD2	H3	1	0.15	1.0079
3966	NC=O	259	MPD2	N	1	-0.547	14.0067
3967	HNCO	259	MPD2	H5	1	0.37	1.0079
3968	NC=O	259	MPD2	N1	1	-0.547	14.0067
3969	HNCO	259	MPD2	H7	1	0.37	1.0079
3970	CB	260	TMC3	C1	1	0.0862	12.011
3971	CB	260	TMC3	C2	1	-0.15	12.011
3972	CB	260	TMC3	C3	1	0.0862	12.011
3973	CB	260	TMC3	C4	1	-0.15	12.011
3974	CB	260	TMC3	C5	1	0.0862	12.011
3975	CB	260	TMC3	C6	1	-0.15	12.011
3976	C=O	260	TMC3	C	1	0.5438	12.011
3977	O=C	260	TMC3	O	1	-0.57	15.9994
3978	HCMM	260	TMC3	H	1	0.15	1.0079
3979	HCMM	260	TMC3	H1	1	0.15	1.0079
3980	HCMM	260	TMC3	H2	1	0.15	1.0079
3981	C=O	260	TMC3	C7	1	0.5438	12.011
3982	C=O	260	TMC3	C8	1	0.5438	12.011
3983	O=C	260	TMC3	O1	1	-0.57	15.9994
3984	O=C	260	TMC3	O2	1	-0.57	15.9994
3985	CB	261	MPD2	C	1	-0.15	12.011
3986	CB	261	MPD2	C1	1	0.117	12.011
3987	CB	261	MPD2	C2	1	-0.15	12.011
3988	CB	261	MPD2	C3	1	0.117	12.011
3989	CB	261	MPD2	C4	1	-0.15	12.011
3990	CB	261	MPD2	C5	1	-0.15	12.011
3991	HCMM	261	MPD2	H	1	0.15	1.0079
3992	HCMM	261	MPD2	H1	1	0.15	1.0079
3993	HCMM	261	MPD2	H2	1	0.15	1.0079
3994	HCMM	261	MPD2	H3	1	0.15	1.0079
3995	NC=O	261	MPD2	N	1	-0.547	14.0067
3996	HNCO	261	MPD2	H5	1	0.37	1.0079
3997	NC=O	261	MPD2	N1	1	-0.547	14.0067
3998	HNCO	261	MPD2	H7	1	0.37	1.0079
3999	CB	262	TMC3	C1	1	0.0862	12.011
4000	CB	262	TMC3	C2	1	-0.15	12.011
4001	CB	262	TMC3	C3	1	0.0862	12.011
4002	CB	262	TMC3	C4	1	-0.15	12.011
4003	CB	262	TMC3	C5	1	0.0862	12.011
4004	CB	262	TMC3	C6	1	-0.15	12.011
4005	C=O	262	TMC3	C	1	0.5438	12.011
4006	O=C	262	TMC3	O	1	-0.57	15.9994
4007	HCMM	262	TMC3	H	1	0.15	1.0079
4008	HCMM	262	TMC3	H1	1	0.15	1.0079
4009	HCMM	262	TMC3	H2	1	0.15	1.0079
4010	C=O	262	TMC3	C7	1	0.5438	12.011
4011	C=O	262	TMC3	C8	1	0.5438	12.011
4012	O=C	262	TMC3	O1	1	-0.57	15.9994
4013	O=C	262	TMC3	O2	1	-0.57	15.9994
4014	CB	263	MPD2	C	1	-0.15	12.011
4015	CB	263	MPD2	C1	1	0.117	12.011
4016	CB	263	MPD2	C2	1	-0.15	12.011
4017	CB	263	MPD2	C3	1	0.117	12.011
4018	CB	263	MPD2	C4	1	-0.15	12.011
4019	CB	263	MPD2	C5	1	-0.15	12.011
4020	HCMM	263	MPD2	H	1	0.15	1.0079
4021	HCMM	263	MPD2	H1	1	0.15	1.0079
4022	HCMM	263	MPD2	H2	1	0.15	1.0079
4023	HCMM	263	MPD2	H3	1	0.15	1.0079
4024	NC=O	263	MPD2	N	1	-0.547	14.0067
4025	HNCO	263	MPD2	H5	1	0.37	1.0079
4026	NC=O	263	MPD2	N1	1	-0.547	14.0067
4027	HNCO	263	MPD2	H7	1	0.37	1.0079
4028	CB	264	TMC3	C1	1	0.0862	12.011
4029	CB	264	TMC3	C2	1	-0.15	12.011
4030	CB	264	TMC3	C3	1	0.0862	12.011
4031	CB	264	TMC3	C4	1	-0.15	12.011
4032	CB	264	TMC3	C5	1	0.0862	12.011
4033	CB	264	TMC3	C6	1	-0.15	12.011
4034	C=O	264	TMC3	C	1	0.5438	12.011
4035	O=C	264	TMC3	O	1	-0.57	15.9994
4036	HCMM	264	TMC3	H	1	0.15	1.0079
4037	HCMM	264	TMC3	H1	1	0.15	1.0079
4038	HCMM	264	TMC3	H2	1	0.15	1.0079
4039	C=O	264	TMC3	C7	1	0.5438	12.011
4040	C=O	264	TMC3	C8	1	0.5438	12.011
4041	O=C	264	TMC3	O1	1	-0.57	15.9994
4042	O=C	264	TMC3	O2	1	-0.57	15.9994
4043	CB	265	MPD2	C	1	-0.15	12.011
4044	CB	265	MPD2	C1	1	0.117	12.011
4045	CB	265	MPD2	C2	1	-0.15	12.011
4046	CB	265	MPD2	C3	1	0.117	12.011
4047	CB	265	MPD2	C4	1	-0.15	12.011
4048	CB	265	MPD2	C5	1	-0.15	12.011
4049	HCMM	265	MPD2	H	1	0.15	1.0079
4050	HCMM	265	MPD2	H1	1	0.15	1.0079
4051	HCMM	265	MPD2	H2	1	0.15	1.0079
4052	HCMM	265	MPD2	H3	1	0.15	1.0079
4053	NC=O	265	MPD2	N	1	-0.547	14.0067
4054	HNCO	265	MPD2	H5	1	0.37	1.0079
4055	NC=O	265	MPD2	N1	1	-0.547	14.0067
4056	HNCO	265	MPD2	H7	1	0.37	1.0079
4057	CB	266	TMC3	C1	1	0.0862	12.011
4058	CB	266	TMC3	C2	1	-0.15	12.011
4059	CB	266	TMC3	C3	1	0.0862	12.011
4060	CB	266	TMC3	C4	1	-0.15	12.011
4061	CB	266	TMC3	C5	1	0.0862	12.011
4062	CB	266	TMC3	C6	1	-0.15	12.011
4063	C=O	266	TMC3	C	1	0.5438	12.011
4064	O=C	266	TMC3	O	1	-0.57	15.9994
4065	HCMM	266	TMC3	H	1	0.15	1.0079
4066	HCMM	266	TMC3	H1	1	0.15	1.0079
4067	HCMM	266	TMC3	H2	1	0.15	1.0079
4068	C=O	266	TMC3	C7	1	0.5438	12.011
4069	C=O	266	TMC3	C8	1	0.5438	12.011
4070	O=C	266	TMC3	O1	1	-0.57	15.9994
4071	O=C	266	TMC3	O2	1	-0.57	15.9994
4072	CB	267	MPD2	C	1	-0.15	12.011
4073	CB	267	MPD2	C1	1	0.117	12.011
4074	CB	267	MPD2	C2	1	-0.15	12.011
4075	CB	267	MPD2	C3	1	0.117	12.011
4076	CB	267	MPD2	C4	1	-0.15	12.011
4077	CB	267	MPD2	C5	1	-0.15	12.011
4078	HCMM	267	MPD2	H	1	0.15	1.0079
4079	HCMM	267	MPD2	H1	1	0.15	1.0079
4080	HCMM	267	MPD2	H2	1	0.15	1.0079
4081	HCMM	267	MPD2	H3	1	0.15	1.0079
4082	NC=O	267	MPD2	N	1	-0.547	14.0067
4083	HNCO	267	MPD2	H5	1	0.37	1.0079
4084	NC=O	267	MPD2	N1	1	-0.547	14.0067
4085	HNCO	267	MPD2	H7	1	0.37	1.0079
4086	CB	268	TMC3	C1	1	0.0862	12.011
4087	CB	268	TMC3	C2	1	-0.15	12.011
4088	CB	268	TMC3	C3	1	0.0862	12.011
4089	CB	268	TMC3	C4	1	-0.15	12.011
4090	CB	268	TMC3	C5	1	0.0862	12.011
4091	CB	268	TMC3	C6	1	-0.15	12.011
4092	C=O	268	TMC3	C	1	0.5438	12.011
4093	O=C	268	TMC3	O	1	-0.57	15.9994
4094	HCMM	268	TMC3	H	1	0.15	1.0079
4095	HCMM	268	TMC3	H1	1	0.15	1.0079
4096	HCMM	268	TMC3	H2	1	0.15	1.0079
4097	C=O	268	TMC3	C7	1	0.5438	12.011
4098	C=O	268	TMC3	C8	1	0.5438	12.011
4099	O=C	268	TMC3	O1	1	-0.57	15.9994
4100	O=C	268	TMC3	O2	1	-0.57	15.9994
4101	CB	269	MPD2	C	1	-0.15	12.011
4102	CB	269	MPD2	C1	1	0.117	12.011
4103	CB	269	MPD2	C2	1	-0.15	12.011
4104	CB	269	MPD2	C3	1	0.117	12.011
4105	CB	269	MPD2	C4	1	-0.15	12.011
4106	CB	269	MPD2	C5	1	-0.15	12.011
4107	HCMM	269	MPD2	H	1	0.15	1.0079
4108	HCMM	269	MPD2	H1	1	0.15	1.0079
4109	HCMM	269	MPD2	H2	1	0.15	1.0079
4110	HCMM	269	MPD2	H3	1	0.15	1.0079
4111	NC=O	269	MPD2	N	1	-0.547	14.0067
4112	HNCO	269	MPD2	H5	1	0.37	1.0079
4113	NC=O	269	MPD2	N1	1	-0.547	14.0067
4114	HNCO	269	MPD2	H7	1	0.37	1.0079
4115	CB	270	TMC3	C1	1	0.0862	12.011
4116	CB	270	TMC3	C2	1	-0.15	12.011
4117	CB	270	TMC3	C3	1	0.0862	12.011
4118	CB	270	TMC3	C4	1	-0.15	12.011
4119	CB	270	TMC3	C5	1	0.0862	12.011
4120	CB	270	TMC3	C6	1	-0.15	12.011
4121	C=O	270	TMC3	C	1	0.5438	12.011
4122	O=C	270	TMC3	O	1	-0.57	15.9994
4123	HCMM	270	TMC3	H	1	0.15	1.0079
4124	HCMM	270	TMC3	H1	1	0.15	1.0079
4125	HCMM	270	TMC3	H2	1	0.15	1.0079
4126	C=O	270	TMC3	C7	1	0.5438	12.011
4127	C=O	270	TMC3	C8	1	0.5438	12.011
4128	O=C	270	TMC3	O1	1	-0.57	15.9994
4129	O=C	270	TMC3	O2	1	-0.57	15.9994
4130	CB	271	MPD2	C	1	-0.15	12.011
4131	CB	271	MPD2	C1	1	0.117	12.011
4132	CB	271	MPD2	C2	1	-0.15	12.011
4133	CB	271	MPD2	C3	1	0.117	12.011
4134	CB	271	MPD2	C4	1	-0.15	12.011
4135	CB	271	MPD2	C5	1	-0.15	12.011
4136	HCMM	271	MPD2	H	1	0.15	1.0079
4137	HCMM	271	MPD2	H1	1	0.15	1.0079
4138	HCMM	271	MPD2	H2	1	0.15	1.0079
4139	HCMM	271	MPD2	H3	1	0.15	1.0079
4140	NC=O	271	MPD2	N	1	-0.547	14.0067
4141	HNCO	271	MPD2	H5	1	0.37	1.0079
4142	NC=O	271	MPD2	N1	1	-0.547	14.0067
4143	HNCO	271	MPD2	H7	1	0.37	1.0079
4144	CB	272	TMC3	C1	1	0.0862	12.011
4145	CB	272	TMC3	C2	1	-0.15	12.011
4146	CB	272	TMC3	C3	1	0.0862	12.011
4147	CB	272	TMC3	C4	1	-0.15	12.011
4148	CB	272	TMC3	C5	1	0.0862	12.011
4149	CB	272	TMC3	C6	1	-0.15	12.011
4150	C=O	272	TMC3	C	1	0.5438	12.011
4151	O=C	272	TMC3	O	1	-0.57	15.9994
4152	HCMM	272	TMC3	H	1	0.15	1.0079
4153	HCMM	272	TMC3	H1	1	0.15	1.0079
4154	HCMM	272	TMC3	H2	1	0.15	1.0079
4155	C=O	272	TMC3	C7	1	0.5438	12.011
4156	C=O	272	TMC3	C8	1	0.5438	12.011
4157	O=C	272	TMC3	O1	1	-0.57	15.9994
4158	O=C	272	TMC3	O2	1	-0.57	15.9994
4159	CB	273	MPD2	C	1	-0.15	12.011
4160	CB	273	MPD2	C1	1	0.117	12.011
4161	CB	273	MPD2	C2	1	-0.15	12.011
4162	CB	273	MPD2	C3	1	0.117	12.011
4163	CB	273	MPD2	C4	1	-0.15	12.011
4164	CB	273	MPD2	C5	1	-0.15	12.011
4165	HCMM	273	MPD2	H	1	0.15	1.0079
4166	HCMM	273	MPD2	H1	1	0.15	1.0079
4167	HCMM	273	MPD2	H2	1	0.15	1.0079
4168	HCMM	273	MPD2	H3	1	0.15	1.0079
4169	NC=O	273	MPD2	N	1	-0.547	14.0067
4170	HNCO	273	MPD2	H5	1	0.37	1.0079
4171	NC=O	273	MPD2	N1	1	-0.547	14.0067
4172	HNCO	273	MPD2	H7	1	0.37	1.0079
4173	CB	274	TMC3	C1	1	0.0862	12.011
4174	CB	274	TMC3	C2	1	-0.15	12.011
4175	CB	274	TMC3	C3	1	0.0862	12.011
4176	CB	274	TMC3	C4	1	-0.15	12.011
4177	CB	274	TMC3	C5	1	0.0862	12.011
4178	CB	274	TMC3	C6	1	-0.15	12.011
4179	C=O	274	TMC3	C	1	0.5438	12.011
4180	O=C	274	TMC3	O	1	-0.57	15.9994
4181	HCMM	274	TMC3	H	1	0.15	1.0079
4182	HCMM	274	TMC3	H1	1	0.15	1.0079
4183	HCMM	274	TMC3	H2	1	0.15	1.0079
4184	C=O	274	TMC3	C7	1	0.5438	12.011
4185	C=O	274	TMC3	C8	1	0.5438	12.011
4186	O=C	274	TMC3	O1	1	-0.57	15.9994
4187	O=C	274	TMC3	O2	1	-0.57	15.9994
4188	CB	275	MPD2	C	1	-0.15	12.011
4189	CB	275	MPD2	C1	1	0.117	12.011
4190	CB	275	MPD2	C2	1	-0.15	12.011
4191	CB	275	MPD2	C3	1	0.117	12.011
4192	CB	275	MPD2	C4	1	-0.15	12.011
4193	CB	275	MPD2	C5	1	-0.15	12.011
4194	HCMM	275	MPD2	H	1	0.15	1.0079
4195	HCMM	275	MPD2	H1	1	0.15	1.0079
4196	HCMM	275	MPD2	H2	1	0.15	1.0079
4197	HCMM	275	MPD2	H3	1	0.15	1.0079
4198	NC=O	275	MPD2	N	1	-0.547	14.0067
4199	HNCO	275	MPD2	H5	1	0.37	1.0079
4200	NC=O	275	MPD2	N1	1	-0.547	14.0067
4201	HNCO	275	MPD2	H7	1	0.37	1.0079
4202	CB	276	TMC3	C1	1	0.0862	12.011
4203	CB	276	TMC3	C2	1	-0.15	12.011
4204	CB	276	TMC3	C3	1	0.0862	12.011
4205	CB	276	TMC3	C4	1	-0.15	12.011
4206	CB	276	TMC3	C5	1	0.0862	12.011
4207	CB	276	TMC3	C6	1	-0.15	12.011
4208	C=O	276	TMC3	C	1	0.5438	12.011
4209	O=C	276	TMC3	O	1	-0.57	15.9994
4210	HCMM	276	TMC3	H	1	0.15	1.0079
4211	HCMM	276	TMC3	H1	1	0.15	1.0079
4212	HCMM	276	TMC3	H2	1	0.15	1.0079
4213	C=O	276	TMC3	C7	1	0.5438	12.011
4214	C=O	276	TMC3	C8	1	0.5438	12.011
4215	O=C	276	TMC3	O1	1	-0.57	15.9994
4216	O=C	276	TMC3	O2	1	-0.57	15.9994
4217	CB	277	MPD2	C	1	-0.15	12.011
4218	CB	277	MPD2	C1	1	0.117	12.011
4219	CB	277	MPD2	C2	1	-0.15	12.011
4220	CB	277	MPD2	C3	1	0.117	12.011
4221	CB	277	MPD2	C4	1	-0.15	12.011
4222	CB	277	MPD2	C5	1	-0.15	12.011
4223	HCMM	277	MPD2	H	1	0.15	1.0079
4224	HCMM	277	MPD2	H1	1	0.15	1.0079
4225	HCMM	277	MPD2	H2	1	0.15	1.0079
4226	HCMM	277	MPD2	H3	1	0.15	1.0079
4227	NC=O	277	MPD2	N	1	-0.547	14.0067
4228	HNCO	277	MPD2	H5	1	0.37	1.0079
4229	NC=O	277	MPD2	N1	1	-0.547	14.0067
4230	HNCO	277	MPD2	H7	1	0.37	1.0079
4231	CB	278	TMC3	C1	1	0.0862	12.011
4232	CB	278	TMC3	C2	1	-0.15	12.011
4233	CB	278	TMC3	C3	1	0.0862	12.011
4234	CB	278	TMC3	C4	1	-0.15	12.011
4235	CB	278	TMC3	C5	1	0.0862	12.011
4236	CB	278	TMC3	C6	1	-0.15	12.011
4237	C=O	278	TMC3	C	1	0.5438	12.011
4238	O=C	278	TMC3	O	1	-0.57	15.9994
4239	HCMM	278	TMC3	H	1	0.15	1.0079
4240	HCMM	278	TMC3	H1	1	0.15	1.0079
4241	HCMM	278	TMC3	H2	1	0.15	1.0079
4242	C=O	278	TMC3	C7	1	0.5438	12.011
4243	C=O	278	TMC3	C8	1	0.5438	12.011
4244	O=C	278	TMC3	O1	1	-0.57	15.9994
4245	O=C	278	TMC3	O2	1	-0.57	15.9994
4246	CB	279	MPD2	C	1	-0.15	12.011
4247	CB	279	MPD2	C1	1	0.117	12.011
4248	CB	279	MPD2	C2	1	-0.15	12.011
4249	CB	279	MPD2	C3	1	0.117	12.011
4250	CB	279	MPD2	C4	1	-0.15	12.011
4251	CB	279	MPD2	C5	1	-0.15	12.011
4252	HCMM	279	MPD2	H	1	0.15	1.0079
4253	HCMM	279	MPD2	H1	1	0.15	1.0079
4254	HCMM	279	MPD2	H2	1	0.15	1.0079
4255	HCMM	279	MPD2	H3	1	0.15	1.0079
4256	NC=O	279	MPD2	N	1	-0.547	14.0067
4257	HNCO	279	MPD2	H5	1	0.37	1.0079
4258	NC=O	279	MPD2	N1	1	-0.547	14.0067
4259	HNCO	279	MPD2	H7	1	0.37	1.0079
4260	CB	280	TMC3	C1	1	0.0862	12.011
4261	CB	280	TMC3	C2	1	-0.15	12.011
4262	CB	280	TMC3	C3	1	0.0862	12.011
4263	CB	280	TMC3	C4	1	-0.15	12.011
4264	CB	280	TMC3	C5	1	0.0862	12.011
4265	CB	280	TMC3	C6	1	-0.15	12.011
4266	C=O	280	TMC3	C	1	0.5438	12.011
4267	O=C	280	TMC3	O	1	-0.57	15.9994
4268	HCMM	280	TMC3	H	1	0.15	1.0079
4269	HCMM	280	TMC3	H1	1	0.15	1.0079
4270	HCMM	280	TMC3	H2	1	0.15	1.0079
4271	C=O	280	TMC3	C7	1	0.5438	12.011
4272	C=O	280	TMC3	C8	1	0.5438	12.011
4273	O=C	280	TMC3	O1	1	-0.57	15.9994
4274	O=C	280	TMC3	O2	1	-0.57	15.9994
4275	CB	281	TMC3	C1	1	0.0862	12.011
4276	CB	281	TMC3	C2	1	-0.15	12.011
4277	CB	281	TMC3	C3	1	0.0862	12.011
4278	CB	281	TMC3	C4	1	-0.15	12.011
4279	CB	281	TMC3	C5	1	0.0862	12.011
4280	CB	281	TMC3	C6	1	-0.15	12.011
4281	C=O	281	TMC3	C	1	0.5438	12.011
4282	O=C	281	TMC3	O	1	-0.57	15.9994
4283	HCMM	281	TMC3	H	1	0.15	1.0079
4284	HCMM	281	TMC3	H1	1	0.15	1.0079
4285	HCMM	281	TMC3	H2	1	0.15	1.0079
4286	C=O	281	TMC3	C7	1	0.5438	12.011
4287	C=O	281	TMC3	C8	1	0.5438	12.011
4288	O=C	281	TMC3	O1	1	-0.57	15.9994
4289	O=C	281	TMC3	O2	1	-0.57	15.9994
4290	CB	282	MPD2	C	1	-0.15	12.011
4291	CB	282	MPD2	C1	1	0.117	12.011
4292	CB	282	MPD2	C2	1	-0.15	12.011
4293	CB	282	MPD2	C3	1	0.117	12.011
4294	CB	282	MPD2	C4	1	-0.15	12.011
4295	CB	282	MPD2	C5	1	-0.15	12.011
4296	HCMM	282	MPD2	H	1	0.15	1.0079
4297	HCMM	282	MPD2	H1	1	0.15	1.0079
4298	HCMM	282	MPD2	H2	1	0.15	1.0079
4299	HCMM	282	MPD2	H3	1	0.15	1.0079
4300	NC=O	282	MPD2	N	1	-0.547	14.0067
4301	HNCO	282	MPD2	H5	1	0.37	1.0079
4302	NC=O	282	MPD2	N1	1	-0.547	14.0067
4303	HNCO	282	MPD2	H7	1	0.37	1.0079
4304	CB	283	TMC3	C1	1	0.0862	12.011
4305	CB	283	TMC3	C2	1	-0.15	12.011
4306	CB	283	TMC3	C3	1	0.0862	12.011
4307	CB	283	TMC3	C4	1	-0.15	12.011
4308	CB	283	TMC3	C5	1	0.0862	12.011
4309	CB	283	TMC3	C6	1	-0.15	12.011
4310	C=O	283	TMC3	C	1	0.5438	12.011
4311	O=C	283	TMC3	O	1	-0.57	15.9994
4312	HCMM	283	TMC3	H	1	0.15	1.0079
4313	HCMM	283	TMC3	H1	1	0.15	1.0079
4314	HCMM	283	TMC3	H2	1	0.15	1.0079
4315	C=O	283	TMC3	C7	1	0.5438	12.011
4316	C=O	283	TMC3	C8	1	0.5438	12.011
4317	O=C	283	TMC3	O1	1	-0.57	15.9994
4318	O=C	283	TMC3	O2	1	-0.57	15.9994
4319	CB	284	MPD2	C	1	-0.15	12.011
4320	CB	284	MPD2	C1	1	0.117	12.011
4321	CB	284	MPD2	C2	1	-0.15	12.011
4322	CB	284	MPD2	C3	1	0.117	12.011
4323	CB	284	MPD2	C4	1	-0.15	12.011
4324	CB	284	MPD2	C5	1	-0.15	12.011
4325	HCMM	284	MPD2	H	1	0.15	1.0079
4326	HCMM	284	MPD2	H1	1	0.15	1.0079
4327	HCMM	284	MPD2	H2	1	0.15	1.0079
4328	HCMM	284	MPD2	H3	1	0.15	1.0079
4329	NC=O	284	MPD2	N	1	-0.547	14.0067
4330	HNCO	284	MPD2	H5	1	0.37	1.0079
4331	NC=O	284	MPD2	N1	1	-0.547	14.0067
4332	HNCO	284	MPD2	H7	1	0.37	1.0079
4333	CB	285	TMC3	C1	1	0.0862	12.011
4334	CB	285	TMC3	C2	1	-0.15	12.011
4335	CB	285	TMC3	C3	1	0.0862	12.011
4336	CB	285	TMC3	C4	1	-0.15	12.011
4337	CB	285	TMC3	C5	1	0.0862	12.011
4338	CB	285	TMC3	C6	1	-0.15	12.011
4339	C=O	285	TMC3	C	1	0.5438	12.011
4340	O=C	285	TMC3	O	1	-0.57	15.9994
4341	HCMM	285	TMC3	H	1	0.15	1.0079
4342	HCMM	285	TMC3	H1	1	0.15	1.0079
4343	HCMM	285	TMC3	H2	1	0.15	1.0079
4344	C=O	285	TMC3	C7	1	0.5438	12.011
4345	C=O	285	TMC3	C8	1	0.5438	12.011
4346	O=C	285	TMC3	O1	1	-0.57	15.9994
4347	O=C	285	TMC3	O2	1	-0.57	15.9994
4348	CB	286	MPD2	C	1	-0.15	12.011
4349	CB	286	MPD2	C1	1	0.117	12.011
4350	CB	286	MPD2	C2	1	-0.15	12.011
4351	CB	286	MPD2	C3	1	0.117	12.011
4352	CB	286	MPD2	C4	1	-0.15	12.011
4353	CB	286	MPD2	C5	1	-0.15	12.011
4354	HCMM	286	MPD2	H	1	0.15	1.0079
4355	HCMM	286	MPD2	H1	1	0.15	1.0079
4356	HCMM	286	MPD2	H2	1	0.15	1.0079
4357	HCMM	286	MPD2	H3	1	0.15	1.0079
4358	NC=O	286	MPD2	N	1	-0.547	14.0067
4359	HNCO	286	MPD2	H5	1	0.37	1.0079
4360	NC=O	286	MPD2	N1	1	-0.547	14.0067
4361	HNCO	286	MPD2	H7	1	0.37	1.0079
4362	CB	287	TMC3	C1	1	0.0862	12.011
4363	CB	287	TMC3	C2	1	-0.15	12.011
4364	CB	287	TMC3	C3	1	0.0862	12.011
4365	CB	287	TMC3	C4	1	-0.15	12.011
4366	CB	287	TMC3	C5	1	0.0862	12.011
4367	CB	287	TMC3	C6	1	-0.15	12.011
4368	C=O	287	TMC3	C	1	0.5438	12.011
4369	O=C	287	TMC3	O	1	-0.57	15.9994
4370	HCMM	287	TMC3	H	1	0.15	1.0079
4371	HCMM	287	TMC3	H1	1	0.15	1.0079
4372	HCMM	287	TMC3	H2	1	0.15	1.0079
4373	C=O	287	TMC3	C7	1	0.5438	12.011
4374	C=O	287	TMC3	C8	1	0.5438	12.011
4375	O=C	287	TMC3	O1	1	-0.57	15.9994
4376	O=C	287	TMC3	O2	1	-0.57	15.9994
4377	CB	288	TMC3	C1	1	0.0862	12.011
4378	CB	288	TMC3	C2	1	-0.15	12.011
4379	CB	288	TMC3	C3	1	0.0862	12.011
4380	CB	288	TMC3	C4	1	-0.15	12.011
4381	CB	288	TMC3	C5	1	0.0862	12.011
4382	CB	288	TMC3	C6	1	-0.15	12.011
4383	C=O	288	TMC3	C	1	0.5438	12.011
4384	O=C	288	TMC3	O	1	-0.57	15.9994
4385	HCMM	288	TMC3	H	1	0.15	1.0079
4386	HCMM	288	TMC3	H1	1	0.15	1.0079
4387	HCMM	288	TMC3	H2	1	0.15	1.0079
4388	C=O	288	TMC3	C7	1	0.5438	12.011
4389	C=O	288	TMC3	C8	1	0.5438	12.011
4390	O=C	288	TMC3	O1	1	-0.57	15.9994
4391	O=C	288	TMC3	O2	1	-0.57	15.9994
4392	CB	289	MPD2	C	1	-0.15	12.011
4393	CB	289	MPD2	C1	1	0.117	12.011
4394	CB	289	MPD2	C2	1	-0.15	12.011
4395	CB	289	MPD2	C3	1	0.117	12.011
4396	CB	289	MPD2	C4	1	-0.15	12.011
4397	CB	289	MPD2	C5	1	-0.15	12.011
4398	HCMM	289	MPD2	H	1	0.15	1.0079
4399	HCMM	289	MPD2	H1	1	0.15	1.0079
4400	HCMM	289	MPD2	H2	1	0.15	1.0079
4401	HCMM	289	MPD2	H3	1	0.15	1.0079
4402	NC=O	289	MPD2	N	1	-0.547	14.0067
4403	HNCO	289	MPD2	H5	1	0.37	1.0079
4404	NC=O	289	MPD2	N1	1	-0.547	14.0067
4405	HNCO	289	MPD2	H7	1	0.37	1.0079
4406	CB	290	TMC3	C1	1	0.0862	12.011
4407	CB	290	TMC3	C2	1	-0.15	12.011
4408	CB	290	TMC3	C3	1	0.0862	12.011
4409	CB	290	TMC3	C4	1	-0.15	12.011
4410	CB	290	TMC3	C5	1	0.0862	12.011
4411	CB	290	TMC3	C6	1	-0.15	12.011
4412	C=O	290	TMC3	C	1	0.5438	12.011
4413	O=C	290	TMC3	O	1	-0.57	15.9994
4414	HCMM	290	TMC3	H	1	0.15	1.0079
4415	HCMM	290	TMC3	H1	1	0.15	1.0079
4416	HCMM	290	TMC3	H2	1	0.15	1.0079
4417	C=O	290	TMC3	C7	1	0.5438	12.011
4418	C=O	290	TMC3	C8	1	0.5438	12.011
4419	O=C	290	TMC3	O1	1	-0.57	15.9994
4420	O=C	290	TMC3	O2	1	-0.57	15.9994
4421	CB	291	MPD2	C	1	-0.15	12.011
4422	CB	291	MPD2	C1	1	0.117	12.011
4423	CB	291	MPD2	C2	1	-0.15	12.011
4424	CB	291	MPD2	C3	1	0.117	12.011
4425	CB	291	MPD2	C4	1	-0.15	12.011
4426	CB	291	MPD2	C5	1	-0.15	12.011
4427	HCMM	291	MPD2	H	1	0.15	1.0079
4428	HCMM	291	MPD2	H1	1	0.15	1.0079
4429	HCMM	291	MPD2	H2	1	0.15	1.0079
4430	HCMM	291	MPD2	H3	1	0.15	1.0079
4431	NC=O	291	MPD2	N	1	-0.547	14.0067
4432	HNCO	291	MPD2	H5	1	0.37	1.0079
4433	NC=O	291	MPD2	N1	1	-0.547	14.0067
4434	HNCO	291	MPD2	H7	1	0.37	1.0079
4435	CB	292	TMC3	C1	1	0.0862	12.011
4436	CB	292	TMC3	C2	1	-0.15	12.011
4437	CB	292	TMC3	C3	1	0.0862	12.011
4438	CB	292	TMC3	C4	1	-0.15	12.011
4439	CB	292	TMC3	C5	1	0.0862	12.011
4440	CB	292	TMC3	C6	1	-0.15	12.011
4441	C=O	292	TMC3	C	1	0.5438	12.011
4442	O=C	292	TMC3	O	1	-0.57	15.9994
4443	HCMM	292	TMC3	H	1	0.15	1.0079
4444	HCMM	292	TMC3	H1	1	0.15	1.0079
4445	HCMM	292	TMC3	H2	1	0.15	1.0079
4446	C=O	292	TMC3	C7	1	0.5438	12.011
4447	C=O	292	TMC3	C8	1	0.5438	12.011
4448	O=C	292	TMC3	O1	1	-0.57	15.9994
4449	O=C	292	TMC3	O2	1	-0.57	15.9994
4450	CB	293	MPD2	C	1	-0.15	12.011
4451	CB	293	MPD2	C1	1	0.117	12.011
4452	CB	293	MPD2	C2	1	-0.15	12.011
4453	CB	293	MPD2	C3	1	0.117	12.011
4454	CB	293	MPD2	C4	1	-0.15	12.011
4455	CB	293	MPD2	C5	1	-0.15	12.011
4456	HCMM	293	MPD2	H	1	0.15	1.0079
4457	HCMM	293	MPD2	H1	1	0.15	1.0079
4458	HCMM	293	MPD2	H2	1	0.15	1.0079
4459	HCMM	293	MPD2	H3	1	0.15	1.0079
4460	NC=O	293	MPD2	N	1	-0.547	14.0067
4461	HNCO	293	MPD2	H5	1	0.37	1.0079
4462	NC=O	293	MPD2	N1	1	-0.547	14.0067
4463	HNCO	293	MPD2	H7	1	0.37	1.0079
4464	CB	294	TMC3	C1	1	0.0862	12.011
4465	CB	294	TMC3	C2	1	-0.15	12.011
4466	CB	294	TMC3	C3	1	0.0862	12.011
4467	CB	294	TMC3	C4	1	-0.15	12.011
4468	CB	294	TMC3	C5	1	0.0862	12.011
4469	CB	294	TMC3	C6	1	-0.15	12.011
4470	C=O	294	TMC3	C	1	0.5438	12.011
4471	O=C	294	TMC3	O	1	-0.57	15.9994
4472	HCMM	294	TMC3	H	1	0.15	1.0079
4473	HCMM	294	TMC3	H1	1	0.15	1.0079
4474	HCMM	294	TMC3	H2	1	0.15	1.0079
4475	C=O	294	TMC3	C7	1	0.5438	12.011
4476	C=O	294	TMC3	C8	1	0.5438	12.011
4477	O=C	294	TMC3	O1	1	-0.57	15.9994
4478	O=C	294	TMC3	O2	1	-0.57	15.9994
4479	CB	295	MPD2	C	1	-0.15	12.011
4480	CB	295	MPD2	C1	1	0.117	12.011
4481	CB	295	MPD2	C2	1	-0.15	12.011
4482	CB	295	MPD2	C3	1	0.117	12.011
4483	CB	295	MPD2	C4	1	-0.15	12.011
4484	CB	295	MPD2	C5	1	-0.15	12.011
4485	HCMM	295	MPD2	H	1	0.15	1.0079
4486	HCMM	295	MPD2	H1	1	0.15	1.0079
4487	HCMM	295	MPD2	H2	1	0.15	1.0079
4488	HCMM	295	MPD2	H3	1	0.15	1.0079
4489	NC=O	295	MPD2	N	1	-0.547	14.0067
4490	HNCO	295	MPD2	H5	1	0.37	1.0079
4491	NC=O	295	MPD2	N1	1	-0.547	14.0067
4492	HNCO	295	MPD2	H7	1	0.37	1.0079
4493	CB	296	TMC3	C1	1	0.0862	12.011
4494	CB	296	TMC3	C2	1	-0.15	12.011
4495	CB	296	TMC3	C3	1	0.0862	12.011
4496	CB	296	TMC3	C4	1	-0.15	12.011
4497	CB	296	TMC3	C5	1	0.0862	12.011
4498	CB	296	TMC3	C6	1	-0.15	12.011
4499	C=O	296	TMC3	C	1	0.5438	12.011
4500	O=C	296	TMC3	O	1	-0.57	15.9994
4501	HCMM	296	TMC3	H	1	0.15	1.0079
4502	HCMM	296	TMC3	H1	1	0.15	1.0079
4503	HCMM	296	TMC3	H2	1	0.15	1.0079
4504	C=O	296	TMC3	C7	1	0.5438	12.011
4505	C=O	296	TMC3	C8	1	0.5438	12.011
4506	O=C	296	TMC3	O1	1	-0.57	15.9994
4507	O=C	296	TMC3	O2	1	-0.57	15.9994
4508	CB	297	MPD2	C	1	-0.15	12.011
4509	CB	297	MPD2	C1	1	0.117	12.011
4510	CB	297	MPD2	C2	1	-0.15	12.011
4511	CB	297	MPD2	C3	1	0.117	12.011
4512	CB	297	MPD2	C4	1	-0.15	12.011
4513	CB	297	MPD2	C5	1	-0.15	12.011
4514	HCMM	297	MPD2	H	1	0.15	1.0079
4515	HCMM	297	MPD2	H1	1	0.15	1.0079
4516	HCMM	297	MPD2	H2	1	0.15	1.0079
4517	HCMM	297	MPD2	H3	1	0.15	1.0079
4518	NC=O	297	MPD2	N	1	-0.547	14.0067
4519	HNCO	297	MPD2	H5	1	0.37	1.0079
4520	NC=O	297	MPD2	N1	1	-0.547	14.0067
4521	HNCO	297	MPD2	H7	1	0.37	1.0079
4522	CB	298	TMC3	C1	1	0.0862	12.011
4523	CB	298	TMC3	C2	1	-0.15	12.011
4524	CB	298	TMC3	C3	1	0.0862	12.011
4525	CB	298	TMC3	C4	1	-0.15	12.011
4526	CB	298	TMC3	C5	1	0.0862	12.011
4527	CB	298	TMC3	C6	1	-0.15	12.011
4528	C=O	298	TMC3	C	1	0.5438	12.011
4529	O=C	298	TMC3	O	1	-0.57	15.9994
4530	HCMM	298	TMC3	H	1	0.15	1.0079
4531	HCMM	298	TMC3	H1	1	0.15	1.0079
4532	HCMM	298	TMC3	H2	1	0.15	1.0079
4533	C=O	298	TMC3	C7	1	0.5438	12.011
4534	C=O	298	TMC3	C8	1	0.5438	12.011
4535	O=C	298	TMC3	O1	1	-0.57	15.9994
4536	O=C	298	TMC3	O2	1	-0.57	15.9994
4537	CB	299	MPD2	C	1	-0.15	12.011
4538	CB	299	MPD2	C1	1	0.117	12.011
4539	CB	299	MPD2	C2	1	-0.15	12.011
4540	CB	299	MPD2	C3	1	0.117	12.011
4541	CB	299	MPD2	C4	1	-0.15	12.011
4542	CB	299	MPD2	C5	1	-0.15	12.011
4543	HCMM	299	MPD2	H	1	0.15	1.0079
4544	HCMM	299	MPD2	H1	1	0.15	1.0079
4545	HCMM	299	MPD2	H2	1	0.15	1.0079
4546	HCMM	299	MPD2	H3	1	0.15	1.0079
4547	NC=O	299	MPD2	N	1	-0.547	14.0067
4548	HNCO	299	MPD2	H5	1	0.37	1.0079
4549	NC=O	299	MPD2	N1	1	-0.547	14.0067
4550	HNCO	299	MPD2	H7	1	0.37	1.0079
4551	CB	300	TMC3	C1	1	0.0862	12.011
4552	CB	300	TMC3	C2	1	-0.15	12.011
4553	CB	300	TMC3	C3	1	0.0862	12.011
4554	CB	300	TMC3	C4	1	-0.15	12.011
4555	CB	300	TMC3	C5	1	0.0862	12.011
4556	CB	300	TMC3	C6	1	-0.15	12.011
4557	C=O	300	TMC3	C	1	0.5438	12.011
4558	O=C	300	TMC3	O	1	-0.57	15.9994
4559	HCMM	300	TMC3	H	1	0.15	1.0079
4560	HCMM	300	TMC3	H1	1	0.15	1.0079
4561	HCMM	300	TMC3	H2	1	0.15	1.0079
4562	C=O	300	TMC3	C7	1	0.5438	12.011
4563	C=O	300	TMC3	C8	1	0.5438	12.011
4564	O=C	300	TMC3	O1	1	-0.57	15.9994
4565	O=C	300	TMC3	O2	1	-0.57	15.9994
4566	CB	301	MPD2	C	1	-0.15	12.011
4567	CB	301	MPD2	C1	1	0.117	12.011
4568	CB	301	MPD2	C2	1	-0.15	12.011
4569	CB	301	MPD2	C3	1	0.117	12.011
4570	CB	301	MPD2	C4	1	-0.15	12.011
4571	CB	301	MPD2	C5	1	-0.15	12.011
4572	HCMM	301	MPD2	H	1	0.15	1.0079
4573	HCMM	301	MPD2	H1	1	0.15	1.0079
4574	HCMM	301	MPD2	H2	1	0.15	1.0079
4575	HCMM	301	MPD2	H3	1	0.15	1.0079
4576	NC=O	301	MPD2	N	1	-0.547	14.0067
4577	HNCO	301	MPD2	H5	1	0.37	1.0079
4578	NC=O	301	MPD2	N1	1	-0.547	14.0067
4579	HNCO	301	MPD2	H7	1	0.37	1.0079
4580	CB	302	TMC3	C1	1	0.0862	12.011
4581	CB	302	TMC3	C2	1	-0.15	12.011
4582	CB	302	TMC3	C3	1	0.0862	12.011
4583	CB	302	TMC3	C4	1	-0.15	12.011
4584	CB	302	TMC3	C5	1	0.0862	12.011
4585	CB	302	TMC3	C6	1	-0.15	12.011
4586	C=O	302	TMC3	C	1	0.5438	12.011
4587	O=C	302	TMC3	O	1	-0.57	15.9994
4588	HCMM	302	TMC3	H	1	0.15	1.0079
4589	HCMM	302	TMC3	H1	1	0.15	1.0079
4590	HCMM	302	TMC3	H2	1	0.15	1.0079
4591	C=O	302	TMC3	C7	1	0.5438	12.011
4592	C=O	302	TMC3	C8	1	0.5438	12.011
4593	O=C	302	TMC3	O1	1	-0.57	15.9994
4594	O=C	302	TMC3	O2	1	-0.57	15.9994
4595	CB	303	MPD2	C	1	-0.15	12.011
4596	CB	303	MPD2	C1	1	0.117	12.011
4597	CB	303	MPD2	C2	1	-0.15	12.011
4598	CB	303	MPD2	C3	1	0.117	12.011
4599	CB	303	MPD2	C4	1	-0.15	12.011
4600	CB	303	MPD2	C5	1	-0.15	12.011
4601	HCMM	303	MPD2	H	1	0.15	1.0079
4602	HCMM	303	MPD2	H1	1	0.15	1.0079
4603	HCMM	303	MPD2	H2	1	0.15	1.0079
4604	HCMM	303	MPD2	H3	1	0.15	1.0079
4605	NC=O	303	MPD2	N	1	-0.547	14.0067
4606	HNCO	303	MPD2	H5	1	0.37	1.0079
4607	NC=O	303	MPD2	N1	1	-0.547	14.0067
4608	HNCO	303	MPD2	H7	1	0.37	1.0079
4609	CB	304	TMC3	C1	1	0.0862	12.011
4610	CB	304	TMC3	C2	1	-0.15	12.011
4611	CB	304	TMC3	C3	1	0.0862	12.011
4612	CB	304	TMC3	C4	1	-0.15	12.011
4613	CB	304	TMC3	C5	1	0.0862	12.011
4614	CB	304	TMC3	C6	1	-0.15	12.011
4615	C=O	304	TMC3	C	1	0.5438	12.011
4616	O=C	304	TMC3	O	1	-0.57	15.9994
4617	HCMM	304	TMC3	H	1	0.15	1.0079
4618	HCMM	304	TMC3	H1	1	0.15	1.0079
4619	HCMM	304	TMC3	H2	1	0.15	1.0079
4620	C=O	304	TMC3	C7	1	0.5438	12.011
4621	C=O	304	TMC3	C8	1	0.5438	12.011
4622	O=C	304	TMC3	O1	1	-0.57	15.9994
4623	O=C	304	TMC3	O2	1	-0.57	15.9994
4624	CB	305	MPD2	C	1	-0.15	12.011
4625	CB	305	MPD2	C1	1	0.117	12.011
4626	CB	305	MPD2	C2	1	-0.15	12.011
4627	CB	305	MPD2	C3	1	0.117	12.011
4628	CB	305	MPD2	C4	1	-0.15	12.011
4629	CB	305	MPD2	C5	1	-0.15	12.011
4630	HCMM	305	MPD2	H	1	0.15	1.0079
4631	HCMM	305	MPD2	H1	1	0.15	1.0079
4632	HCMM	305	MPD2	H2	1	0.15	1.0079
4633	HCMM	305	MPD2	H3	1	0.15	1.0079
4634	NC=O	305	MPD2	N	1	-0.547	14.0067
4635	HNCO	305	MPD2	H5	1	0.37	1.0079
4636	NC=O	305	MPD2	N1	1	-0.547	14.0067
4637	HNCO	305	MPD2	H7	1	0.37	1.0079
4638	CB	306	TMC3	C1	1	0.0862	12.011
4639	CB	306	TMC3	C2	1	-0.15	12.011
4640	CB	306	TMC3	C3	1	0.0862	12.011
4641	CB	306	TMC3	C4	1	-0.15	12.011
4642	CB	306	TMC3	C5	1	0.0862	12.011
4643	CB	306	TMC3	C6	1	-0.15	12.011
4644	C=O	306	TMC3	C	1	0.5438	12.011
4645	O=C	306	TMC3	O	1	-0.57	15.9994
4646	HCMM	306	TMC3	H	1	0.15	1.0079
4647	HCMM	306	TMC3	H1	1	0.15	1.0079
4648	HCMM	306	TMC3	H2	1	0.15	1.0079
4649	C=O	306	TMC3	C7	1	0.5438	12.011
4650	C=O	306	TMC3	C8	1	0.5438	12.011
4651	O=C	306	TMC3	O1	1	-0.57	15.9994
4652	O=C	306	TMC3	O2	1	-0.57	15.9994
4653	CB	307	MPD2	C	1	-0.15	12.011
4654	CB	307	MPD2	C1	1	0.117	12.011
4655	CB	307	MPD2	C2	1	-0.15	12.011
4656	CB	307	MPD2	C3	1	0.117	12.011
4657	CB	307	MPD2	C4	1	-0.15	12.011
4658	CB	307	MPD2	C5	1	-0.15	12.011
4659	HCMM	307	MPD2	H	1	0.15	1.0079
4660	HCMM	307	MPD2	H1	1	0.15	1.0079
4661	HCMM	307	MPD2	H2	1	0.15	1.0079
4662	HCMM	307	MPD2	H3	1	0.15	1.0079
4663	NC=O	307	MPD2	N	1	-0.547	14.0067
4664	HNCO	307	MPD2	H5	1	0.37	1.0079
4665	NC=O	307	MPD2	N1	1	-0.547	14.0067
4666	HNCO	307	MPD2	H7	1	0.37	1.0079
4667	CB	308	TMC3	C1	1	0.0862	12.011
4668	CB	308	TMC3	C2	1	-0.15	12.011
4669	CB	308	TMC3	C3	1	0.0862	12.011
4670	CB	308	TMC3	C4	1	-0.15	12.011
4671	CB	308	TMC3	C5	1	0.0862	12.011
4672	CB	308	TMC3	C6	1	-0.15	12.011
4673	C=O	308	TMC3	C	1	0.5438	12.011
4674	O=C	308	TMC3	O	1	-0.57	15.9994
4675	HCMM	308	TMC3	H	1	0.15	1.0079
4676	HCMM	308	TMC3	H1	1	0.15	1.0079
4677	HCMM	308	TMC3	H2	1	0.15	1.0079
4678	C=O	308	TMC3	C7	1	0.5438	12.011
4679	C=O	308	TMC3	C8	1	0.5438	12.011
4680	O=C	308	TMC3	O1	1	-0.57	15.9994
4681	O=C	308	TMC3	O2	1	-0.57	15.9994
4682	CB	309	MPD2	C	1	-0.15	12.011
4683	CB	309	MPD2	C1	1	0.117	12.011
4684	CB	309	MPD2	C2	1	-0.15	12.011
4685	CB	309	MPD2	C3	1	0.117	12.011
4686	CB	309	MPD2	C4	1	-0.15	12.011
4687	CB	309	MPD2	C5	1	-0.15	12.011
4688	HCMM	309	MPD2	H	1	0.15	1.0079
4689	HCMM	309	MPD2	H1	1	0.15	1.0079
4690	HCMM	309	MPD2	H2	1	0.15	1.0079
4691	HCMM	309	MPD2	H3	1	0.15	1.0079
4692	NC=O	309	MPD2	N	1	-0.547	14.0067
4693	HNCO	309	MPD2	H5	1	0.37	1.0079
4694	NC=O	309	MPD2	N1	1	-0.547	14.0067
4695	HNCO	309	MPD2	H7	1	0.37	1.0079
4696	CB	310	TMC3	C1	1	0.0862	12.011
4697	CB	310	TMC3	C2	1	-0.15	12.011
4698	CB	310	TMC3	C3	1	0.0862	12.011
4699	CB	310	TMC3	C4	1	-0.15	12.011
4700	CB	310	TMC3	C5	1	0.0862	12.011
4701	CB	310	TMC3	C6	1	-0.15	12.011
4702	C=O	310	TMC3	C	1	0.5438	12.011
4703	O=C	310	TMC3	O	1	-0.57	15.9994
4704	HCMM	310	TMC3	H	1	0.15	1.0079
4705	HCMM	310	TMC3	H1	1	0.15	1.0079
4706	HCMM	310	TMC3	H2	1	0.15	1.0079
4707	C=O	310	TMC3	C7	1	0.5438	12.011
4708	C=O	310	TMC3	C8	1	0.5438	12.011
4709	O=C	310	TMC3	O1	1	-0.57	15.9994
4710	O=C	310	TMC3	O2	1	-0.57	15.9994
4711	CB	311	MPD2	C	1	-0.15	12.011
4712	CB	311	MPD2	C1	1	0.117	12.011
4713	CB	311	MPD2	C2	1	-0.15	12.011
4714	CB	311	MPD2	C3	1	0.117	12.011
4715	CB	311	MPD2	C4	1	-0.15	12.011
4716	CB	311	MPD2	C5	1	-0.15	12.011
4717	HCMM	311	MPD2	H	1	0.15	1.0079
4718	HCMM	311	MPD2	H1	1	0.15	1.0079
4719	HCMM	311	MPD2	H2	1	0.15	1.0079
4720	HCMM	311	MPD2	H3	1	0.15	1.0079
4721	NC=O	311	MPD2	N	1	-0.547	14.0067
4722	HNCO	311	MPD2	H5	1	0.37	1.0079
4723	NC=O	311	MPD2	N1	1	-0.547	14.0067
4724	HNCO	311	MPD2	H7	1	0.37	1.0079
4725	CB	312	TMC3	C1	1	0.0862	12.011
4726	CB	312	TMC3	C2	1	-0.15	12.011
4727	CB	312	TMC3	C3	1	0.0862	12.011
4728	CB	312	TMC3	C4	1	-0.15	12.011
4729	CB	312	TMC3	C5	1	0.0862	12.011
4730	CB	312	TMC3	C6	1	-0.15	12.011
4731	C=O	312	TMC3	C	1	0.5438	12.011
4732	O=C	312	TMC3	O	1	-0.57	15.9994
4733	HCMM	312	TMC3	H	1	0.15	1.0079
4734	HCMM	312	TMC3	H1	1	0.15	1.0079
4735	HCMM	312	TMC3	H2	1	0.15	1.0079
4736	C=O	312	TMC3	C7	1	0.5438	12.011
4737	C=O	312	TMC3	C8	1	0.5438	12.011
4738	O=C	312	TMC3	O1	1	-0.57	15.9994
4739	O=C	312	TMC3	O2	1	-0.57	15.9994
4740	CB	313	MPD2	C	1	-0.15	12.011
4741	CB	313	MPD2	C1	1	0.117	12.011
4742	CB	313	MPD2	C2	1	-0.15	12.011
4743	CB	313	MPD2	C3	1	0.117	12.011
4744	CB	313	MPD2	C4	1	-0.15	12.011
4745	CB	313	MPD2	C5	1	-0.15	12.011
4746	HCMM	313	MPD2	H	1	0.15	1.0079
4747	HCMM	313	MPD2	H1	1	0.15	1.0079
4748	HCMM	313	MPD2	H2	1	0.15	1.0079
4749	HCMM	313	MPD2	H3	1	0.15	1.0079
4750	NC=O	313	MPD2	N	1	-0.547	14.0067
4751	HNCO	313	MPD2	H5	1	0.37	1.0079
4752	NC=O	313	MPD2	N1	1	-0.547	14.0067
4753	HNCO	313	MPD2	H7	1	0.37	1.0079
4754	CB	314	TMC3	C1	1	0.0862	12.011
4755	CB	314	TMC3	C2	1	-0.15	12.011
4756	CB	314	TMC3	C3	1	0.0862	12.011
4757	CB	314	TMC3	C4	1	-0.15	12.011
4758	CB	314	TMC3	C5	1	0.0862	12.011
4759	CB	314	TMC3	C6	1	-0.15	12.011
4760	C=O	314	TMC3	C	1	0.5438	12.011
4761	O=C	314	TMC3	O	1	-0.57	15.9994
4762	HCMM	314	TMC3	H	1	0.15	1.0079
4763	HCMM	314	TMC3	H1	1	0.15	1.0079
4764	HCMM	314	TMC3	H2	1	0.15	1.0079
4765	C=O	314	TMC3	C7	1	0.5438	12.011
4766	C=O	314	TMC3	C8	1	0.5438	12.011
4767	O=C	314	TMC3	O1	1	-0.57	15.9994
4768	O=C	314	TMC3	O2	1	-0.57	15.9994
4769	CB	315	MPD2	C	1	-0.15	12.011
4770	CB	315	MPD2	C1	1	0.117	12.011
4771	CB	315	MPD2	C2	1	-0.15	12.011
4772	CB	315	MPD2	C3	1	0.117	12.011
4773	CB	315	MPD2	C4	1	-0.15	12.011
4774	CB	315	MPD2	C5	1	-0.15	12.011
4775	HCMM	315	MPD2	H	1	0.15	1.0079
4776	HCMM	315	MPD2	H1	1	0.15	1.0079
4777	HCMM	315	MPD2	H2	1	0.15	1.0079
4778	HCMM	315	MPD2	H3	1	0.15	1.0079
4779	NC=O	315	MPD2	N	1	-0.547	14.0067
4780	HNCO	315	MPD2	H5	1	0.37	1.0079
4781	NC=O	315	MPD2	N1	1	-0.547	14.0067
4782	HNCO	315	MPD2	H7	1	0.37	1.0079
4783	CB	316	TMC3	C1	1	0.0862	12.011
4784	CB	316	TMC3	C2	1	-0.15	12.011
4785	CB	316	TMC3	C3	1	0.0862	12.011
4786	CB	316	TMC3	C4	1	-0.15	12.011
4787	CB	316	TMC3	C5	1	0.0862	12.011
4788	CB	316	TMC3	C6	1	-0.15	12.011
4789	C=O	316	TMC3	C	1	0.5438	12.011
4790	O=C	316	TMC3	O	1	-0.57	15.9994
4791	HCMM	316	TMC3	H	1	0.15	1.0079
4792	HCMM	316	TMC3	H1	1	0.15	1.0079
4793	HCMM	316	TMC3	H2	1	0.15	1.0079
4794	C=O	316	TMC3	C7	1	0.5438	12.011
4795	C=O	316	TMC3	C8	1	0.5438	12.011
4796	O=C	316	TMC3	O1	1	-0.57	15.9994
4797	O=C	316	TMC3	O2	1	-0.57	15.9994
4798	CB	317	MPD2	C	1	-0.15	12.011
4799	CB	317	MPD2	C1	1	0.117	12.011
4800	CB	317	MPD2	C2	1	-0.15	12.011
4801	CB	317	MPD2	C3	1	0.117	12.011
4802	CB	317	MPD2	C4	1	-0.15	12.011
4803	CB	317	MPD2	C5	1	-0.15	12.011
4804	HCMM	317	MPD2	H	1	0.15	1.0079
4805	HCMM	317	MPD2	H1	1	0.15	1.0079
4806	HCMM	317	MPD2	H2	1	0.15	1.0079
4807	HCMM	317	MPD2	H3	1	0.15	1.0079
4808	NC=O	317	MPD2	N	1	-0.547	14.0067
4809	HNCO	317	MPD2	H5	1	0.37	1.0079
4810	NC=O	317	MPD2	N1	1	-0.547	14.0067
4811	HNCO	317	MPD2	H7	1	0.37	1.0079
4812	CB	318	TMC3	C1	1	0.0862	12.011
4813	CB	318	TMC3	C2	1	-0.15	12.011
4814	CB	318	TMC3	C3	1	0.0862	12.011
4815	CB	318	TMC3	C4	1	-0.15	12.011
4816	CB	318	TMC3	C5	1	0.0862	12.011
4817	CB	318	TMC3	C6	1	-0.15	12.011
4818	C=O	318	TMC3	C	1	0.5438	12.011
4819	O=C	318	TMC3	O	1	-0.57	15.9994
4820	HCMM	318	TMC3	H	1	0.15	1.0079
4821	HCMM	318	TMC3	H1	1	0.15	1.0079
4822	HCMM	318	TMC3	H2	1	0.15	1.0079
4823	C=O	318	TMC3	C7	1	0.5438	12.011
4824	C=O	318	TMC3	C8	1	0.5438	12.011
4825	O=C	318	TMC3	O1	1	-0.57	15.9994
4826	O=C	318	TMC3	O2	1	-0.57	15.9994
4827	CB	319	MPD2	C	1	-0.15	12.011
4828	CB	319	MPD2	C1	1	0.117	12.011
4829	CB	319	MPD2	C2	1	-0.15	12.011
4830	CB	319	MPD2	C3	1	0.117	12.011
4831	CB	319	MPD2	C4	1	-0.15	12.011
4832	CB	319	MPD2	C5	1	-0.15	12.011
4833	HCMM	319	MPD2	H	1	0.15	1.0079
4834	HCMM	319	MPD2	H1	1	0.15	1.0079
4835	HCMM	319	MPD2	H2	1	0.15	1.0079
4836	HCMM	319	MPD2	H3	1	0.15	1.0079
4837	NC=O	319	MPD2	N	1	-0.547	14.0067
4838	HNCO	319	MPD2	H5	1	0.37	1.0079
4839	NC=O	319	MPD2	N1	1	-0.547	14.0067
4840	HNCO	319	MPD2	H7	1	0.37	1.0079
4841	CB	320	TMC3	C1	1	0.0862	12.011
4842	CB	320	TMC3	C2	1	-0.15	12.011
4843	CB	320	TMC3	C3	1	0.0862	12.011
4844	CB	320	TMC3	C4	1	-0.15	12.011
4845	CB	320	TMC3	C5	1	0.0862	12.011
4846	CB	320	TMC3	C6	1	-0.15	12.011
4847	C=O	320	TMC3	C	1	0.5438	12.011
4848	O=C	320	TMC3	O	1	-0.57	15.9994
4849	HCMM	320	TMC3	H	1	0.15	1.0079
4850	HCMM	320	TMC3	H1	1	0.15	1.0079
4851	HCMM	320	TMC3	H2	1	0.15	1.0079
4852	C=O	320	TMC3	C7	1	0.5438	12.011
4853	C=O	320	TMC3	C8	1	0.5438	12.011
4854	O=C	320	TMC3	O1	1	-0.57	15.9994
4855	O=C	320	TMC3	O2	1	-0.57	15.9994
4856	CB	321	TMC3	C1	1	0.0862	12.011
4857	CB	321	TMC3	C2	1	-0.15	12.011
4858	CB	321	TMC3	C3	1	0.0862	12.011
4859	CB	321	TMC3	C4	1	-0.15	12.011
4860	CB	321	TMC3	C5	1	0.0862	12.011
4861	CB	321	TMC3	C6	1	-0.15	12.011
4862	C=O	321	TMC3	C	1	0.5438	12.011
4863	O=C	321	TMC3	O	1	-0.57	15.9994
4864	HCMM	321	TMC3	H	1	0.15	1.0079
4865	HCMM	321	TMC3	H1	1	0.15	1.0079
4866	HCMM	321	TMC3	H2	1	0.15	1.0079
4867	C=O	321	TMC3	C7	1	0.5438	12.011
4868	C=O	321	TMC3	C8	1	0.5438	12.011
4869	O=C	321	TMC3	O1	1	-0.57	15.9994
4870	O=C	321	TMC3	O2	1	-0.57	15.9994
4871	CB	322	MPD2	C	1	-0.15	12.011
4872	CB	322	MPD2	C1	1	0.117	12.011
4873	CB	322	MPD2	C2	1	-0.15	12.011
4874	CB	322	MPD2	C3	1	0.117	12.011
4875	CB	322	MPD2	C4	1	-0.15	12.011
4876	CB	322	MPD2	C5	1	-0.15	12.011
4877	HCMM	322	MPD2	H	1	0.15	1.0079
4878	HCMM	322	MPD2	H1	1	0.15	1.0079
4879	HCMM	322	MPD2	H2	1	0.15	1.0079
4880	HCMM	322	MPD2	H3	1	0.15	1.0079
4881	NC=O	322	MPD2	N	1	-0.547	14.0067
4882	HNCO	322	MPD2	H5	1	0.37	1.0079
4883	NC=O	322	MPD2	N1	1	-0.547	14.0067
4884	HNCO	322	MPD2	H7	1	0.37	1.0079
4885	CB	323	TMC3	C1	1	0.0862	12.011
4886	CB	323	TMC3	C2	1	-0.15	12.011
4887	CB	323	TMC3	C3	1	0.0862	12.011
4888	CB	323	TMC3	C4	1	-0.15	12.011
4889	CB	323	TMC3	C5	1	0.0862	12.011
4890	CB	323	TMC3	C6	1	-0.15	12.011
4891	C=O	323	TMC3	C	1	0.5438	12.011
4892	O=C	323	TMC3	O	1	-0.57	15.9994
4893	HCMM	323	TMC3	H	1	0.15	1.0079
4894	HCMM	323	TMC3	H1	1	0.15	1.0079
4895	HCMM	323	TMC3	H2	1	0.15	1.0079
4896	C=O	323	TMC3	C7	1	0.5438	12.011
4897	C=O	323	TMC3	C8	1	0.5438	12.011
4898	O=C	323	TMC3	O1	1	-0.57	15.9994
4899	O=C	323	TMC3	O2	1	-0.57	15.9994
4900	CB	324	MPD2	C	1	-0.15	12.011
4901	CB	324	MPD2	C1	1	0.117	12.011
4902	CB	324	MPD2	C2	1	-0.15	12.011
4903	CB	324	MPD2	C3	1	0.117	12.011
4904	CB	324	MPD2	C4	1	-0.15	12.011
4905	CB	324	MPD2	C5	1	-0.15	12.011
4906	HCMM	324	MPD2	H	1	0.15	1.0079
4907	HCMM	324	MPD2	H1	1	0.15	1.0079
4908	HCMM	324	MPD2	H2	1	0.15	1.0079
4909	HCMM	324	MPD2	H3	1	0.15	1.0079
4910	NC=O	324	MPD2	N	1	-0.547	14.0067
4911	HNCO	324	MPD2	H5	1	0.37	1.0079
4912	NC=O	324	MPD2	N1	1	-0.547	14.0067
4913	HNCO	324	MPD2	H7	1	0.37	1.0079
4914	CB	325	TMC3	C1	1	0.0862	12.011
4915	CB	325	TMC3	C2	1	-0.15	12.011
4916	CB	325	TMC3	C3	1	0.0862	12.011
4917	CB	325	TMC3	C4	1	-0.15	12.011
4918	CB	325	TMC3	C5	1	0.0862	12.011
4919	CB	325	TMC3	C6	1	-0.15	12.011
4920	C=O	325	TMC3	C	1	0.5438	12.011
4921	O=C	325	TMC3	O	1	-0.57	15.9994
4922	HCMM	325	TMC3	H	1	0.15	1.0079
4923	HCMM	325	TMC3	H1	1	0.15	1.0079
4924	HCMM	325	TMC3	H2	1	0.15	1.0079
4925	C=O	325	TMC3	C7	1	0.5438	12.011
4926	C=O	325	TMC3	C8	1	0.5438	12.011
4927	O=C	325	TMC3	O1	1	-0.57	15.9994
4928	O=C	325	TMC3	O2	1	-0.57	15.9994
4929	CB	326	MPD2	C	1	-0.15	12.011
4930	CB	326	MPD2	C1	1	0.117	12.011
4931	CB	326	MPD2	C2	1	-0.15	12.011
4932	CB	326	MPD2	C3	1	0.117	12.011
4933	CB	326	MPD2	C4	1	-0.15	12.011
4934	CB	326	MPD2	C5	1	-0.15	12.011
4935	HCMM	326	MPD2	H	1	0.15	1.0079
4936	HCMM	326	MPD2	H1	1	0.15	1.0079
4937	HCMM	326	MPD2	H2	1	0.15	1.0079
4938	HCMM	326	MPD2	H3	1	0.15	1.0079
4939	NC=O	326	MPD2	N	1	-0.547	14.0067
4940	HNCO	326	MPD2	H5	1	0.37	1.0079
4941	NC=O	326	MPD2	N1	1	-0.547	14.0067
4942	HNCO	326	MPD2	H7	1	0.37	1.0079
4943	CB	327	TMC3	C1	1	0.0862	12.011
4944	CB	327	TMC3	C2	1	-0.15	12.011
4945	CB	327	TMC3	C3	1	0.0862	12.011
4946	CB	327	TMC3	C4	1	-0.15	12.011
4947	CB	327	TMC3	C5	1	0.0862	12.011
4948	CB	327	TMC3	C6	1	-0.15	12.011
4949	C=O	327	TMC3	C	1	0.5438	12.011
4950	O=C	327	TMC3	O	1	-0.57	15.9994
4951	HCMM	327	TMC3	H	1	0.15	1.0079
4952	HCMM	327	TMC3	H1	1	0.15	1.0079
4953	HCMM	327	TMC3	H2	1	0.15	1.0079
4954	C=O	327	TMC3	C7	1	0.5438	12.011
4955	C=O	327	TMC3	C8	1	0.5438	12.011
4956	O=C	327	TMC3	O1	1	-0.57	15.9994
4957	O=C	327	TMC3	O2	1	-0.57	15.9994
4958	CB	328	MPD2	C	1	-0.15	12.011
4959	CB	328	MPD2	C1	1	0.117	12.011
4960	CB	328	MPD2	C2	1	-0.15	12.011
4961	CB	328	MPD2	C3	1	0.117	12.011
4962	CB	328	MPD2	C4	1	-0.15	12.011
4963	CB	328	MPD2	C5	1	-0.15	12.011
4964	HCMM	328	MPD2	H	1	0.15	1.0079
4965	HCMM	328	MPD2	H1	1	0.15	1.0079
4966	HCMM	328	MPD2	H2	1	0.15	1.0079
4967	HCMM	328	MPD2	H3	1	0.15	1.0079
4968	NC=O	328	MPD2	N	1	-0.547	14.0067
4969	HNCO	328	MPD2	H5	1	0.37	1.0079
4970	NC=O	328	MPD2	N1	1	-0.547	14.0067
4971	HNCO	328	MPD2	H7	1	0.37	1.0079
4972	CB	329	TMC3	C1	1	0.0862	12.011
4973	CB	329	TMC3	C2	1	-0.15	12.011
4974	CB	329	TMC3	C3	1	0.0862	12.011
4975	CB	329	TMC3	C4	1	-0.15	12.011
4976	CB	329	TMC3	C5	1	0.0862	12.011
4977	CB	329	TMC3	C6	1	-0.15	12.011
4978	C=O	329	TMC3	C	1	0.5438	12.011
4979	O=C	329	TMC3	O	1	-0.57	15.9994
4980	HCMM	329	TMC3	H	1	0.15	1.0079
4981	HCMM	329	TMC3	H1	1	0.15	1.0079
4982	HCMM	329	TMC3	H2	1	0.15	1.0079
4983	C=O	329	TMC3	C7	1	0.5438	12.011
4984	C=O	329	TMC3	C8	1	0.5438	12.011
4985	O=C	329	TMC3	O1	1	-0.57	15.9994
4986	O=C	329	TMC3	O2	1	-0.57	15.9994
4987	CB	330	TMC3	C1	1	0.0862	12.011
4988	CB	330	TMC3	C2	1	-0.15	12.011
4989	CB	330	TMC3	C3	1	0.0862	12.011
4990	CB	330	TMC3	C4	1	-0.15	12.011
4991	CB	330	TMC3	C5	1	0.0862	12.011
4992	CB	330	TMC3	C6	1	-0.15	12.011
4993	C=O	330	TMC3	C	1	0.5438	12.011
4994	O=C	330	TMC3	O	1	-0.57	15.9994
4995	HCMM	330	TMC3	H	1	0.15	1.0079
4996	HCMM	330	TMC3	H1	1	0.15	1.0079
4997	HCMM	330	TMC3	H2	1	0.15	1.0079
4998	C=O	330	TMC3	C7	1	0.5438	12.011
4999	C=O	330	TMC3	C8	1	0.5438	12.011
5000	O=C	330	TMC3	O1	1	-0.57	15.9994
5001	O=C	330	TMC3	O2	1	-0.57	15.9994
5002	CB	331	MPD2	C	1	-0.15	12.011
5003	CB	331	MPD2	C1	1	0.117	12.011
5004	CB	331	MPD2	C2	1	-0.15	12.011
5005	CB	331	MPD2	C3	1	0.117	12.011
5006	CB	331	MPD2	C4	1	-0.15	12.011
5007	CB	331	MPD2	C5	1	-0.15	12.011
5008	HCMM	331	MPD2	H	1	0.15	1.0079
5009	HCMM	331	MPD2	H1	1	0.15	1.0079
5010	HCMM	331	MPD2	H2	1	0.15	1.0079
5011	HCMM	331	MPD2	H3	1	0.15	1.0079
5012	NC=O	331	MPD2	N	1	-0.547	14.0067
5013	HNCO	331	MPD2	H5	1	0.37	1.0079
5014	NC=O	331	MPD2	N1	1	-0.547	14.0067
5015	HNCO	331	MPD2	H7	1	0.37	1.0079
5016	CB	332	TMC3	C1	1	0.0862	12.011
5017	CB	332	TMC3	C2	1	-0.15	12.011
5018	CB	332	TMC3	C3	1	0.0862	12.011
5019	CB	332	TMC3	C4	1	-0.15	12.011
5020	CB	332	TMC3	C5	1	0.0862	12.011
5021	CB	332	TMC3	C6	1	-0.15	12.011
5022	C=O	332	TMC3	C	1	0.5438	12.011
5023	O=C	332	TMC3	O	1	-0.57	15.9994
5024	HCMM	332	TMC3	H	1	0.15	1.0079
5025	HCMM	332	TMC3	H1	1	0.15	1.0079
5026	HCMM	332	TMC3	H2	1	0.15	1.0079
5027	C=O	332	TMC3	C7	1	0.5438	12.011
5028	C=O	332	TMC3	C8	1	0.5438	12.011
5029	O=C	332	TMC3	O1	1	-0.57	15.9994
5030	O=C	332	TMC3	O2	1	-0.57	15.9994
5031	CB	333	MPD2	C	1	-0.15	12.011
5032	CB	333	MPD2	C1	1	0.117	12.011
5033	CB	333	MPD2	C2	1	-0.15	12.011
5034	CB	333	MPD2	C3	1	0.117	12.011
5035	CB	333	MPD2	C4	1	-0.15	12.011
5036	CB	333	MPD2	C5	1	-0.15	12.011
5037	HCMM	333	MPD2	H	1	0.15	1.0079
5038	HCMM	333	MPD2	H1	1	0.15	1.0079
5039	HCMM	333	MPD2	H2	1	0.15	1.0079
5040	HCMM	333	MPD2	H3	1	0.15	1.0079
5041	NC=O	333	MPD2	N	1	-0.547	14.0067
5042	HNCO	333	MPD2	H5	1	0.37	1.0079
5043	NC=O	333	MPD2	N1	1	-0.547	14.0067
5044	HNCO	333	MPD2	H7	1	0.37	1.0079
5045	CB	334	TMC3	C1	1	0.0862	12.011
5046	CB	334	TMC3	C2	1	-0.15	12.011
5047	CB	334	TMC3	C3	1	0.0862	12.011
5048	CB	334	TMC3	C4	1	-0.15	12.011
5049	CB	334	TMC3	C5	1	0.0862	12.011
5050	CB	334	TMC3	C6	1	-0.15	12.011
5051	C=O	334	TMC3	C	1	0.5438	12.011
5052	O=C	334	TMC3	O	1	-0.57	15.9994
5053	HCMM	334	TMC3	H	1	0.15	1.0079
5054	HCMM	334	TMC3	H1	1	0.15	1.0079
5055	HCMM	334	TMC3	H2	1	0.15	1.0079
5056	C=O	334	TMC3	C7	1	0.5438	12.011
5057	C=O	334	TMC3	C8	1	0.5438	12.011
5058	O=C	334	TMC3	O1	1	-0.57	15.9994
5059	O=C	334	TMC3	O2	1	-0.57	15.9994
5060	CB	335	TMC3	C1	1	0.0862	12.011
5061	CB	335	TMC3	C2	1	-0.15	12.011
5062	CB	335	TMC3	C3	1	0.0862	12.011
5063	CB	335	TMC3	C4	1	-0.15	12.011
5064	CB	335	TMC3	C5	1	0.0862	12.011
5065	CB	335	TMC3	C6	1	-0.15	12.011
5066	C=O	335	TMC3	C	1	0.5438	12.011
5067	O=C	335	TMC3	O	1	-0.57	15.9994
5068	HCMM	335	TMC3	H	1	0.15	1.0079
5069	HCMM	335	TMC3	H1	1	0.15	1.0079
5070	HCMM	335	TMC3	H2	1	0.15	1.0079
5071	C=O	335	TMC3	C7	1	0.5438	12.011
5072	C=O	335	TMC3	C8	1	0.5438	12.011
5073	O=C	335	TMC3	O1	1	-0.57	15.9994
5074	O=C	335	TMC3	O2	1	-0.57	15.9994
5075	CB	336	MPD2	C	1	-0.15	12.011
5076	CB	336	MPD2	C1	1	0.117	12.011
5077	CB	336	MPD2	C2	1	-0.15	12.011
5078	CB	336	MPD2	C3	1	0.117	12.011
5079	CB	336	MPD2	C4	1	-0.15	12.011
5080	CB	336	MPD2	C5	1	-0.15	12.011
5081	HCMM	336	MPD2	H	1	0.15	1.0079
5082	HCMM	336	MPD2	H1	1	0.15	1.0079
5083	HCMM	336	MPD2	H2	1	0.15	1.0079
5084	HCMM	336	MPD2	H3	1	0.15	1.0079
5085	NC=O	336	MPD2	N	1	-0.547	14.0067
5086	HNCO	336	MPD2	H5	1	0.37	1.0079
5087	NC=O	336	MPD2	N1	1	-0.547	14.0067
5088	HNCO	336	MPD2	H7	1	0.37	1.0079
5089	CB	337	TMC3	C1	1	0.0862	12.011
5090	CB	337	TMC3	C2	1	-0.15	12.011
5091	CB	337	TMC3	C3	1	0.0862	12.011
5092	CB	337	TMC3	C4	1	-0.15	12.011
5093	CB	337	TMC3	C5	1	0.0862	12.011
5094	CB	337	TMC3	C6	1	-0.15	12.011
5095	C=O	337	TMC3	C	1	0.5438	12.011
5096	O=C	337	TMC3	O	1	-0.57	15.9994
5097	HCMM	337	TMC3	H	1	0.15	1.0079
5098	HCMM	337	TMC3	H1	1	0.15	1.0079
5099	HCMM	337	TMC3	H2	1	0.15	1.0079
5100	C=O	337	TMC3	C7	1	0.5438	12.011
5101	C=O	337	TMC3	C8	1	0.5438	12.011
5102	O=C	337	TMC3	O1	1	-0.57	15.9994
5103	O=C	337	TMC3	O2	1	-0.57	15.9994
5104	CB	338	MPD2	C	1	-0.15	12.011
5105	CB	338	MPD2	C1	1	0.117	12.011
5106	CB	338	MPD2	C2	1	-0.15	12.011
5107	CB	338	MPD2	C3	1	0.117	12.011
5108	CB	338	MPD2	C4	1	-0.15	12.011
5109	CB	338	MPD2	C5	1	-0.15	12.011
5110	HCMM	338	MPD2	H	1	0.15	1.0079
5111	HCMM	338	MPD2	H1	1	0.15	1.0079
5112	HCMM	338	MPD2	H2	1	0.15	1.0079
5113	HCMM	338	MPD2	H3	1	0.15	1.0079
5114	NC=O	338	MPD2	N	1	-0.547	14.0067
5115	HNCO	338	MPD2	H5	1	0.37	1.0079
5116	NC=O	338	MPD2	N1	1	-0.547	14.0067
5117	HNCO	338	MPD2	H7	1	0.37	1.0079
5118	CB	339	TMC3	C1	1	0.0862	12.011
5119	CB	339	TMC3	C2	1	-0.15	12.011
5120	CB	339	TMC3	C3	1	0.0862	12.011
5121	CB	339	TMC3	C4	1	-0.15	12.011
5122	CB	339	TMC3	C5	1	0.0862	12.011
5123	CB	339	TMC3	C6	1	-0.15	12.011
5124	C=O	339	TMC3	C	1	0.5438	12.011
5125	O=C	339	TMC3	O	1	-0.57	15.9994
5126	HCMM	339	TMC3	H	1	0.15	1.0079
5127	HCMM	339	TMC3	H1	1	0.15	1.0079
5128	HCMM	339	TMC3	H2	1	0.15	1.0079
5129	C=O	339	TMC3	C7	1	0.5438	12.011
5130	C=O	339	TMC3	C8	1	0.5438	12.011
5131	O=C	339	TMC3	O1	1	-0.57	15.9994
5132	O=C	339	TMC3	O2	1	-0.57	15.9994
5133	CB	340	MPD2	C	1	-0.15	12.011
5134	CB	340	MPD2	C1	1	0.117	12.011
5135	CB	340	MPD2	C2	1	-0.15	12.011
5136	CB	340	MPD2	C3	1	0.117	12.011
5137	CB	340	MPD2	C4	1	-0.15	12.011
5138	CB	340	MPD2	C5	1	-0.15	12.011
5139	HCMM	340	MPD2	H	1	0.15	1.0079
5140	HCMM	340	MPD2	H1	1	0.15	1.0079
5141	HCMM	340	MPD2	H2	1	0.15	1.0079
5142	HCMM	340	MPD2	H3	1	0.15	1.0079
5143	NC=O	340	MPD2	N	1	-0.547	14.0067
5144	HNCO	340	MPD2	H5	1	0.37	1.0079
5145	NC=O	340	MPD2	N1	1	-0.547	14.0067
5146	HNCO	340	MPD2	H7	1	0.37	1.0079
5147	CB	341	TMC3	C1	1	0.0862	12.011
5148	CB	341	TMC3	C2	1	-0.15	12.011
5149	CB	341	TMC3	C3	1	0.0862	12.011
5150	CB	341	TMC3	C4	1	-0.15	12.011
5151	CB	341	TMC3	C5	1	0.0862	12.011
5152	CB	341	TMC3	C6	1	-0.15	12.011
5153	C=O	341	TMC3	C	1	0.5438	12.011
5154	O=C	341	TMC3	O	1	-0.57	15.9994
5155	HCMM	341	TMC3	H	1	0.15	1.0079
5156	HCMM	341	TMC3	H1	1	0.15	1.0079
5157	HCMM	341	TMC3	H2	1	0.15	1.0079
5158	C=O	341	TMC3	C7	1	0.5438	12.011
5159	C=O	341	TMC3	C8	1	0.5438	12.011
5160	O=C	341	TMC3	O1	1	-0.57	15.9994
5161	O=C	341	TMC3	O2	1	-0.57	15.9994
5162	CB	342	MPD2	C	1	-0.15	12.011
5163	CB	342	MPD2	C1	1	0.117	12.011
5164	CB	342	MPD2	C2	1	-0.15	12.011
5165	CB	342	MPD2	C3	1	0.117	12.011
5166	CB	342	MPD2	C4	1	-0.15	12.011
5167	CB	342	MPD2	C5	1	-0.15	12.011
5168	HCMM	342	MPD2	H	1	0.15	1.0079
5169	HCMM	342	MPD2	H1	1	0.15	1.0079
5170	HCMM	342	MPD2	H2	1	0.15	1.0079
5171	HCMM	342	MPD2	H3	1	0.15	1.0079
5172	NC=O	342	MPD2	N	1	-0.547	14.0067
5173	HNCO	342	MPD2	H5	1	0.37	1.0079
5174	NC=O	342	MPD2	N1	1	-0.547	14.0067
5175	HNCO	342	MPD2	H7	1	0.37	1.0079
5176	CB	343	TMC3	C1	1	0.0862	12.011
5177	CB	343	TMC3	C2	1	-0.15	12.011
5178	CB	343	TMC3	C3	1	0.0862	12.011
5179	CB	343	TMC3	C4	1	-0.15	12.011
5180	CB	343	TMC3	C5	1	0.0862	12.011
5181	CB	343	TMC3	C6	1	-0.15	12.011
5182	C=O	343	TMC3	C	1	0.5438	12.011
5183	O=C	343	TMC3	O	1	-0.57	15.9994
5184	HCMM	343	TMC3	H	1	0.15	1.0079
5185	HCMM	343	TMC3	H1	1	0.15	1.0079
5186	HCMM	343	TMC3	H2	1	0.15	1.0079
5187	C=O	343	TMC3	C7	1	0.5438	12.011
5188	C=O	343	TMC3	C8	1	0.5438	12.011
5189	O=C	343	TMC3	O1	1	-0.57	15.9994
5190	O=C	343	TMC3	O2	1	-0.57	15.9994
5191	CB	344	MPD2	C	1	-0.15	12.011
5192	CB	344	MPD2	C1	1	0.117	12.011
5193	CB	344	MPD2	C2	1	-0.15	12.011
5194	CB	344	MPD2	C3	1	0.117	12.011
5195	CB	344	MPD2	C4	1	-0.15	12.011
5196	CB	344	MPD2	C5	1	-0.15	12.011
5197	HCMM	344	MPD2	H	1	0.15	1.0079
5198	HCMM	344	MPD2	H1	1	0.15	1.0079
5199	HCMM	344	MPD2	H2	1	0.15	1.0079
5200	HCMM	344	MPD2	H3	1	0.15	1.0079
5201	NC=O	344	MPD2	N	1	-0.547	14.0067
5202	HNCO	344	MPD2	H5	1	0.37	1.0079
5203	NC=O	344	MPD2	N1	1	-0.547	14.0067
5204	HNCO	344	MPD2	H7	1	0.37	1.0079
5205	CB	345	TMC3	C1	1	0.0862	12.011
5206	CB	345	TMC3	C2	1	-0.15	12.011
5207	CB	345	TMC3	C3	1	0.0862	12.011
5208	CB	345	TMC3	C4	1	-0.15	12.011
5209	CB	345	TMC3	C5	1	0.0862	12.011
5210	CB	345	TMC3	C6	1	-0.15	12.011
5211	C=O	345	TMC3	C	1	0.5438	12.011
5212	O=C	345	TMC3	O	1	-0.57	15.9994
5213	HCMM	345	TMC3	H	1	0.15	1.0079
5214	HCMM	345	TMC3	H1	1	0.15	1.0079
5215	HCMM	345	TMC3	H2	1	0.15	1.0079
5216	C=O	345	TMC3	C7	1	0.5438	12.011
5217	C=O	345	TMC3	C8	1	0.5438	12.011
5218	O=C	345	TMC3	O1	1	-0.57	15.9994
5219	O=C	345	TMC3	O2	1	-0.57	15.9994
5220	CB	346	MPD2	C	1	-0.15	12.011
5221	CB	346	MPD2	C1	1	0.117	12.011
5222	CB	346	MPD2	C2	1	-0.15	12.011
5223	CB	346	MPD2	C3	1	0.117	12.011
5224	CB	346	MPD2	C4	1	-0.15	12.011
5225	CB	346	MPD2	C5	1	-0.15	12.011
5226	HCMM	346	MPD2	H	1	0.15	1.0079
5227	HCMM	346	MPD2	H1	1	0.15	1.0079
5228	HCMM	346	MPD2	H2	1	0.15	1.0079
5229	HCMM	346	MPD2	H3	1	0.15	1.0079
5230	NC=O	346	MPD2	N	1	-0.547	14.0067
5231	HNCO	346	MPD2	H5	1	0.37	1.0079
5232	NC=O	346	MPD2	N1	1	-0.547	14.0067
5233	HNCO	346	MPD2	H7	1	0.37	1.0079
5234	CB	347	TMC3	C1	1	0.0862	12.011
5235	CB	347	TMC3	C2	1	-0.15	12.011
5236	CB	347	TMC3	C3	1	0.0862	12.011
5237	CB	347	TMC3	C4	1	-0.15	12.011
5238	CB	347	TMC3	C5	1	0.0862	12.011
5239	CB	347	TMC3	C6	1	-0.15	12.011
5240	C=O	347	TMC3	C	1	0.5438	12.011
5241	O=C	347	TMC3	O	1	-0.57	15.9994
5242	HCMM	347	TMC3	H	1	0.15	1.0079
5243	HCMM	347	TMC3	H1	1	0.15	1.0079
5244	HCMM	347	TMC3	H2	1	0.15	1.0079
5245	C=O	347	TMC3	C7	1	0.5438	12.011
5246	C=O	347	TMC3	C8	1	0.5438	12.011
5247	O=C	347	TMC3	O1	1	-0.57	15.9994
5248	O=C	347	TMC3	O2	1	-0.57	15.9994
5249	CB	348	MPD2	C	1	-0.15	12.011
5250	CB	348	MPD2	C1	1	0.117	12.011
5251	CB	348	MPD2	C2	1	-0.15	12.011
5252	CB	348	MPD2	C3	1	0.117	12.011
5253	CB	348	MPD2	C4	1	-0.15	12.011
5254	CB	348	MPD2	C5	1	-0.15	12.011
5255	HCMM	348	MPD2	H	1	0.15	1.0079
5256	HCMM	348	MPD2	H1	1	0.15	1.0079
5257	HCMM	348	MPD2	H2	1	0.15	1.0079
5258	HCMM	348	MPD2	H3	1	0.15	1.0079
5259	NC=O	348	MPD2	N	1	-0.547	14.0067
5260	HNCO	348	MPD2	H5	1	0.37	1.0079
5261	NC=O	348	MPD2	N1	1	-0.547	14.0067
5262	HNCO	348	MPD2	H7	1	0.37	1.0079
5263	CB	349	TMC3	C1	1	0.0862	12.011
5264	CB	349	TMC3	C2	1	-0.15	12.011
5265	CB	349	TMC3	C3	1	0.0862	12.011
5266	CB	349	TMC3	C4	1	-0.15	12.011
5267	CB	349	TMC3	C5	1	0.0862	12.011
5268	CB	349	TMC3	C6	1	-0.15	12.011
5269	C=O	349	TMC3	C	1	0.5438	12.011
5270	O=C	349	TMC3	O	1	-0.57	15.9994
5271	HCMM	349	TMC3	H	1	0.15	1.0079
5272	HCMM	349	TMC3	H1	1	0.15	1.0079
5273	HCMM	349	TMC3	H2	1	0.15	1.0079
5274	C=O	349	TMC3	C7	1	0.5438	12.011
5275	C=O	349	TMC3	C8	1	0.5438	12.011
5276	O=C	349	TMC3	O1	1	-0.57	15.9994
5277	O=C	349	TMC3	O2	1	-0.57	15.9994
5278	CB	350	MPD2	C	1	-0.15	12.011
5279	CB	350	MPD2	C1	1	0.117	12.011
5280	CB	350	MPD2	C2	1	-0.15	12.011
5281	CB	350	MPD2	C3	1	0.117	12.011
5282	CB	350	MPD2	C4	1	-0.15	12.011
5283	CB	350	MPD2	C5	1	-0.15	12.011
5284	HCMM	350	MPD2	H	1	0.15	1.0079
5285	HCMM	350	MPD2	H1	1	0.15	1.0079
5286	HCMM	350	MPD2	H2	1	0.15	1.0079
5287	HCMM	350	MPD2	H3	1	0.15	1.0079
5288	NC=O	350	MPD2	N	1	-0.547	14.0067
5289	HNCO	350	MPD2	H5	1	0.37	1.0079
5290	NC=O	350	MPD2	N1	1	-0.547	14.0067
5291	HNCO	350	MPD2	H7	1	0.37	1.0079
5292	CB	351	TMC3	C1	1	0.0862	12.011
5293	CB	351	TMC3	C2	1	-0.15	12.011
5294	CB	351	TMC3	C3	1	0.0862	12.011
5295	CB	351	TMC3	C4	1	-0.15	12.011
5296	CB	351	TMC3	C5	1	0.0862	12.011
5297	CB	351	TMC3	C6	1	-0.15	12.011
5298	C=O	351	TMC3	C	1	0.5438	12.011
5299	O=C	351	TMC3	O	1	-0.57	15.9994
5300	HCMM	351	TMC3	H	1	0.15	1.0079
5301	HCMM	351	TMC3	H1	1	0.15	1.0079
5302	HCMM	351	TMC3	H2	1	0.15	1.0079
5303	C=O	351	TMC3	C7	1	0.5438	12.011
5304	C=O	351	TMC3	C8	1	0.5438	12.011
5305	O=C	351	TMC3	O1	1	-0.57	15.9994
5306	O=C	351	TMC3	O2	1	-0.57	15.9994
5307	CB	352	MPD2	C	1	-0.15	12.011
5308	CB	352	MPD2	C1	1	0.117	12.011
5309	CB	352	MPD2	C2	1	-0.15	12.011
5310	CB	352	MPD2	C3	1	0.117	12.011
5311	CB	352	MPD2	C4	1	-0.15	12.011
5312	CB	352	MPD2	C5	1	-0.15	12.011
5313	HCMM	352	MPD2	H	1	0.15	1.0079
5314	HCMM	352	MPD2	H1	1	0.15	1.0079
5315	HCMM	352	MPD2	H2	1	0.15	1.0079
5316	HCMM	352	MPD2	H3	1	0.15	1.0079
5317	NC=O	352	MPD2	N	1	-0.547	14.0067
5318	HNCO	352	MPD2	H5	1	0.37	1.0079
5319	NC=O	352	MPD2	N1	1	-0.547	14.0067
5320	HNCO	352	MPD2	H7	1	0.37	1.0079
5321	CB	353	TMC3	C1	1	0.0862	12.011
5322	CB	353	TMC3	C2	1	-0.15	12.011
5323	CB	353	TMC3	C3	1	0.0862	12.011
5324	CB	353	TMC3	C4	1	-0.15	12.011
5325	CB	353	TMC3	C5	1	0.0862	12.011
5326	CB	353	TMC3	C6	1	-0.15	12.011
5327	C=O	353	TMC3	C	1	0.5438	12.011
5328	O=C	353	TMC3	O	1	-0.57	15.9994
5329	HCMM	353	TMC3	H	1	0.15	1.0079
5330	HCMM	353	TMC3	H1	1	0.15	1.0079
5331	HCMM	353	TMC3	H2	1	0.15	1.0079
5332	C=O	353	TMC3	C7	1	0.5438	12.011
5333	C=O	353	TMC3	C8	1	0.5438	12.011
5334	O=C	353	TMC3	O1	1	-0.57	15.9994
5335	O=C	353	TMC3	O2	1	-0.57	15.9994
5336	CB	354	TMC3	C1	1	0.0862	12.011
5337	CB	354	TMC3	C2	1	-0.15	12.011
5338	CB	354	TMC3	C3	1	0.0862	12.011
5339	CB	354	TMC3	C4	1	-0.15	12.011
5340	CB	354	TMC3	C5	1	0.0862	12.011
5341	CB	354	TMC3	C6	1	-0.15	12.011
5342	C=O	354	TMC3	C	1	0.5438	12.011
5343	O=C	354	TMC3	O	1	-0.57	15.9994
5344	HCMM	354	TMC3	H	1	0.15	1.0079
5345	HCMM	354	TMC3	H1	1	0.15	1.0079
5346	HCMM	354	TMC3	H2	1	0.15	1.0079
5347	C=O	354	TMC3	C7	1	0.5438	12.011
5348	C=O	354	TMC3	C8	1	0.5438	12.011
5349	O=C	354	TMC3	O1	1	-0.57	15.9994
5350	O=C	354	TMC3	O2	1	-0.57	15.9994
5351	CB	355	MPD2	C	1	-0.15	12.011
5352	CB	355	MPD2	C1	1	0.117	12.011
5353	CB	355	MPD2	C2	1	-0.15	12.011
5354	CB	355	MPD2	C3	1	0.117	12.011
5355	CB	355	MPD2	C4	1	-0.15	12.011
5356	CB	355	MPD2	C5	1	-0.15	12.011
5357	HCMM	355	MPD2	H	1	0.15	1.0079
5358	HCMM	355	MPD2	H1	1	0.15	1.0079
5359	HCMM	355	MPD2	H2	1	0.15	1.0079
5360	HCMM	355	MPD2	H3	1	0.15	1.0079
5361	NC=O	355	MPD2	N	1	-0.547	14.0067
5362	HNCO	355	MPD2	H5	1	0.37	1.0079
5363	NC=O	355	MPD2	N1	1	-0.547	14.0067
5364	HNCO	355	MPD2	H7	1	0.37	1.0079
5365	CB	356	TMC3	C1	1	0.0862	12.011
5366	CB	356	TMC3	C2	1	-0.15	12.011
5367	CB	356	TMC3	C3	1	0.0862	12.011
5368	CB	356	TMC3	C4	1	-0.15	12.011
5369	CB	356	TMC3	C5	1	0.0862	12.011
5370	CB	356	TMC3	C6	1	-0.15	12.011
5371	C=O	356	TMC3	C	1	0.5438	12.011
5372	O=C	356	TMC3	O	1	-0.57	15.9994
5373	HCMM	356	TMC3	H	1	0.15	1.0079
5374	HCMM	356	TMC3	H1	1	0.15	1.0079
5375	HCMM	356	TMC3	H2	1	0.15	1.0079
5376	C=O	356	TMC3	C7	1	0.5438	12.011
5377	C=O	356	TMC3	C8	1	0.5438	12.011
5378	O=C	356	TMC3	O1	1	-0.57	15.9994
5379	O=C	356	TMC3	O2	1	-0.57	15.9994
5380	CB	357	MPD2	C	1	-0.15	12.011
5381	CB	357	MPD2	C1	1	0.117	12.011
5382	CB	357	MPD2	C2	1	-0.15	12.011
5383	CB	357	MPD2	C3	1	0.117	12.011
5384	CB	357	MPD2	C4	1	-0.15	12.011
5385	CB	357	MPD2	C5	1	-0.15	12.011
5386	HCMM	357	MPD2	H	1	0.15	1.0079
5387	HCMM	357	MPD2	H1	1	0.15	1.0079
5388	HCMM	357	MPD2	H2	1	0.15	1.0079
5389	HCMM	357	MPD2	H3	1	0.15	1.0079
5390	NC=O	357	MPD2	N	1	-0.547	14.0067
5391	HNCO	357	MPD2	H5	1	0.37	1.0079
5392	NC=O	357	MPD2	N1	1	-0.547	14.0067
5393	HNCO	357	MPD2	H7	1	0.37	1.0079
5394	CB	358	TMC3	C1	1	0.0862	12.011
5395	CB	358	TMC3	C2	1	-0.15	12.011
5396	CB	358	TMC3	C3	1	0.0862	12.011
5397	CB	358	TMC3	C4	1	-0.15	12.011
5398	CB	358	TMC3	C5	1	0.0862	12.011
5399	CB	358	TMC3	C6	1	-0.15	12.011
5400	C=O	358	TMC3	C	1	0.5438	12.011
5401	O=C	358	TMC3	O	1	-0.57	15.9994
5402	HCMM	358	TMC3	H	1	0.15	1.0079
5403	HCMM	358	TMC3	H1	1	0.15	1.0079
5404	HCMM	358	TMC3	H2	1	0.15	1.0079
5405	C=O	358	TMC3	C7	1	0.5438	12.011
5406	C=O	358	TMC3	C8	1	0.5438	12.011
5407	O=C	358	TMC3	O1	1	-0.57	15.9994
5408	O=C	358	TMC3	O2	1	-0.57	15.9994
5409	CB	359	MPD2	C	1	-0.15	12.011
5410	CB	359	MPD2	C1	1	0.117	12.011
5411	CB	359	MPD2	C2	1	-0.15	12.011
5412	CB	359	MPD2	C3	1	0.117	12.011
5413	CB	359	MPD2	C4	1	-0.15	12.011
5414	CB	359	MPD2	C5	1	-0.15	12.011
5415	HCMM	359	MPD2	H	1	0.15	1.0079
5416	HCMM	359	MPD2	H1	1	0.15	1.0079
5417	HCMM	359	MPD2	H2	1	0.15	1.0079
5418	HCMM	359	MPD2	H3	1	0.15	1.0079
5419	NC=O	359	MPD2	N	1	-0.547	14.0067
5420	HNCO	359	MPD2	H5	1	0.37	1.0079
5421	NC=O	359	MPD2	N1	1	-0.547	14.0067
5422	HNCO	359	MPD2	H7	1	0.37	1.0079
5423	CB	360	TMC3	C1	1	0.0862	12.011
5424	CB	360	TMC3	C2	1	-0.15	12.011
5425	CB	360	TMC3	C3	1	0.0862	12.011
5426	CB	360	TMC3	C4	1	-0.15	12.011
5427	CB	360	TMC3	C5	1	0.0862	12.011
5428	CB	360	TMC3	C6	1	-0.15	12.011
5429	C=O	360	TMC3	C	1	0.5438	12.011
5430	O=C	360	TMC3	O	1	-0.57	15.9994
5431	HCMM	360	TMC3	H	1	0.15	1.0079
5432	HCMM	360	TMC3	H1	1	0.15	1.0079
5433	HCMM	360	TMC3	H2	1	0.15	1.0079
5434	C=O	360	TMC3	C7	1	0.5438	12.011
5435	C=O	360	TMC3	C8	1	0.5438	12.011
5436	O=C	360	TMC3	O1	1	-0.57	15.9994
5437	O=C	360	TMC3	O2	1	-0.57	15.9994
5438	CB	361	MPD2	C	1	-0.15	12.011
5439	CB	361	MPD2	C1	1	0.117	12.011
5440	CB	361	MPD2	C2	1	-0.15	12.011
5441	CB	361	MPD2	C3	1	0.117	12.011
5442	CB	361	MPD2	C4	1	-0.15	12.011
5443	CB	361	MPD2	C5	1	-0.15	12.011
5444	HCMM	361	MPD2	H	1	0.15	1.0079
5445	HCMM	361	MPD2	H1	1	0.15	1.0079
5446	HCMM	361	MPD2	H2	1	0.15	1.0079
5447	HCMM	361	MPD2	H3	1	0.15	1.0079
5448	NC=O	361	MPD2	N	1	-0.547	14.0067
5449	HNCO	361	MPD2	H5	1	0.37	1.0079
5450	NC=O	361	MPD2	N1	1	-0.547	14.0067
5451	HNCO	361	MPD2	H7	1	0.37	1.0079
5452	CB	362	TMC3	C1	1	0.0862	12.011
5453	CB	362	TMC3	C2	1	-0.15	12.011
5454	CB	362	TMC3	C3	1	0.0862	12.011
5455	CB	362	TMC3	C4	1	-0.15	12.011
5456	CB	362	TMC3	C5	1	0.0862	12.011
5457	CB	362	TMC3	C6	1	-0.15	12.011
5458	C=O	362	TMC3	C	1	0.5438	12.011
5459	O=C	362	TMC3	O	1	-0.57	15.9994
5460	HCMM	362	TMC3	H	1	0.15	1.0079
5461	HCMM	362	TMC3	H1	1	0.15	1.0079
5462	HCMM	362	TMC3	H2	1	0.15	1.0079
5463	C=O	362	TMC3	C7	1	0.5438	12.011
5464	C=O	362	TMC3	C8	1	0.5438	12.011
5465	O=C	362	TMC3	O1	1	-0.57	15.9994
5466	O=C	362	TMC3	O2	1	-0.57	15.9994
5467	CB	363	TMC3	C1	1	0.0862	12.011
5468	CB	363	TMC3	C2	1	-0.15	12.011
5469	CB	363	TMC3	C3	1	0.0862	12.011
5470	CB	363	TMC3	C4	1	-0.15	12.011
5471	CB	363	TMC3	C5	1	0.0862	12.011
5472	CB	363	TMC3	C6	1	-0.15	12.011
5473	C=O	363	TMC3	C	1	0.5438	12.011
5474	O=C	363	TMC3	O	1	-0.57	15.9994
5475	HCMM	363	TMC3	H	1	0.15	1.0079
5476	HCMM	363	TMC3	H1	1	0.15	1.0079
5477	HCMM	363	TMC3	H2	1	0.15	1.0079
5478	C=O	363	TMC3	C7	1	0.5438	12.011
5479	C=O	363	TMC3	C8	1	0.5438	12.011
5480	O=C	363	TMC3	O1	1	-0.57	15.9994
5481	O=C	363	TMC3	O2	1	-0.57	15.9994
5482	CB	364	MPD2	C	1	-0.15	12.011
5483	CB	364	MPD2	C1	1	0.117	12.011
5484	CB	364	MPD2	C2	1	-0.15	12.011
5485	CB	364	MPD2	C3	1	0.117	12.011
5486	CB	364	MPD2	C4	1	-0.15	12.011
5487	CB	364	MPD2	C5	1	-0.15	12.011
5488	HCMM	364	MPD2	H	1	0.15	1.0079
5489	HCMM	364	MPD2	H1	1	0.15	1.0079
5490	HCMM	364	MPD2	H2	1	0.15	1.0079
5491	HCMM	364	MPD2	H3	1	0.15	1.0079
5492	NC=O	364	MPD2	N	1	-0.547	14.0067
5493	HNCO	364	MPD2	H5	1	0.37	1.0079
5494	NC=O	364	MPD2	N1	1	-0.547	14.0067
5495	HNCO	364	MPD2	H7	1	0.37	1.0079
5496	CB	365	TMC3	C1	1	0.0862	12.011
5497	CB	365	TMC3	C2	1	-0.15	12.011
5498	CB	365	TMC3	C3	1	0.0862	12.011
5499	CB	365	TMC3	C4	1	-0.15	12.011
5500	CB	365	TMC3	C5	1	0.0862	12.011
5501	CB	365	TMC3	C6	1	-0.15	12.011
5502	C=O	365	TMC3	C	1	0.5438	12.011
5503	O=C	365	TMC3	O	1	-0.57	15.9994
5504	HCMM	365	TMC3	H	1	0.15	1.0079
5505	HCMM	365	TMC3	H1	1	0.15	1.0079
5506	HCMM	365	TMC3	H2	1	0.15	1.0079
5507	C=O	365	TMC3	C7	1	0.5438	12.011
5508	C=O	365	TMC3	C8	1	0.5438	12.011
5509	O=C	365	TMC3	O1	1	-0.57	15.9994
5510	O=C	365	TMC3	O2	1	-0.57	15.9994
5511	CB	366	MPD2	C	1	-0.15	12.011
5512	CB	366	MPD2	C1	1	0.117	12.011
5513	CB	366	MPD2	C2	1	-0.15	12.011
5514	CB	366	MPD2	C3	1	0.117	12.011
5515	CB	366	MPD2	C4	1	-0.15	12.011
5516	CB	366	MPD2	C5	1	-0.15	12.011
5517	HCMM	366	MPD2	H	1	0.15	1.0079
5518	HCMM	366	MPD2	H1	1	0.15	1.0079
5519	HCMM	366	MPD2	H2	1	0.15	1.0079
5520	HCMM	366	MPD2	H3	1	0.15	1.0079
5521	NC=O	366	MPD2	N	1	-0.547	14.0067
5522	HNCO	366	MPD2	H5	1	0.37	1.0079
5523	NC=O	366	MPD2	N1	1	-0.547	14.0067
5524	HNCO	366	MPD2	H7	1	0.37	1.0079
5525	CB	367	TMC3	C1	1	0.0862	12.011
5526	CB	367	TMC3	C2	1	-0.15	12.011
5527	CB	367	TMC3	C3	1	0.0862	12.011
5528	CB	367	TMC3	C4	1	-0.15	12.011
5529	CB	367	TMC3	C5	1	0.0862	12.011
5530	CB	367	TMC3	C6	1	-0.15	12.011
5531	C=O	367	TMC3	C	1	0.5438	12.011
5532	O=C	367	TMC3	O	1	-0.57	15.9994
5533	HCMM	367	TMC3	H	1	0.15	1.0079
5534	HCMM	367	TMC3	H1	1	0.15	1.0079
5535	HCMM	367	TMC3	H2	1	0.15	1.0079
5536	C=O	367	TMC3	C7	1	0.5438	12.011
5537	C=O	367	TMC3	C8	1	0.5438	12.011
5538	O=C	367	TMC3	O1	1	-0.57	15.9994
5539	O=C	367	TMC3	O2	1	-0.57	15.9994
5540	CB	368	MPD2	C	1	-0.15	12.011
5541	CB	368	MPD2	C1	1	0.117	12.011
5542	CB	368	MPD2	C2	1	-0.15	12.011
5543	CB	368	MPD2	C3	1	0.117	12.011
5544	CB	368	MPD2	C4	1	-0.15	12.011
5545	CB	368	MPD2	C5	1	-0.15	12.011
5546	HCMM	368	MPD2	H	1	0.15	1.0079
5547	HCMM	368	MPD2	H1	1	0.15	1.0079
5548	HCMM	368	MPD2	H2	1	0.15	1.0079
5549	HCMM	368	MPD2	H3	1	0.15	1.0079
5550	NC=O	368	MPD2	N	1	-0.547	14.0067
5551	HNCO	368	MPD2	H5	1	0.37	1.0079
5552	NC=O	368	MPD2	N1	1	-0.547	14.0067
5553	HNCO	368	MPD2	H7	1	0.37	1.0079
5554	CB	369	TMC3	C1	1	0.0862	12.011
5555	CB	369	TMC3	C2	1	-0.15	12.011
5556	CB	369	TMC3	C3	1	0.0862	12.011
5557	CB	369	TMC3	C4	1	-0.15	12.011
5558	CB	369	TMC3	C5	1	0.0862	12.011
5559	CB	369	TMC3	C6	1	-0.15	12.011
5560	C=O	369	TMC3	C	1	0.5438	12.011
5561	O=C	369	TMC3	O	1	-0.57	15.9994
5562	HCMM	369	TMC3	H	1	0.15	1.0079
5563	HCMM	369	TMC3	H1	1	0.15	1.0079
5564	HCMM	369	TMC3	H2	1	0.15	1.0079
5565	C=O	369	TMC3	C7	1	0.5438	12.011
5566	C=O	369	TMC3	C8	1	0.5438	12.011
5567	O=C	369	TMC3	O1	1	-0.57	15.9994
5568	O=C	369	TMC3	O2	1	-0.57	15.9994
5569	CB	370	TMC3	C1	1	0.0862	12.011
5570	CB	370	TMC3	C2	1	-0.15	12.011
5571	CB	370	TMC3	C3	1	0.0862	12.011
5572	CB	370	TMC3	C4	1	-0.15	12.011
5573	CB	370	TMC3	C5	1	0.0862	12.011
5574	CB	370	TMC3	C6	1	-0.15	12.011
5575	C=O	370	TMC3	C	1	0.5438	12.011
5576	O=C	370	TMC3	O	1	-0.57	15.9994
5577	HCMM	370	TMC3	H	1	0.15	1.0079
5578	HCMM	370	TMC3	H1	1	0.15	1.0079
5579	HCMM	370	TMC3	H2	1	0.15	1.0079
5580	C=O	370	TMC3	C7	1	0.5438	12.011
5581	C=O	370	TMC3	C8	1	0.5438	12.011
5582	O=C	370	TMC3	O1	1	-0.57	15.9994
5583	O=C	370	TMC3	O2	1	-0.57	15.9994
5584	CB	371	TMC3	C1	1	0.0862	12.011
5585	CB	371	TMC3	C2	1	-0.15	12.011
5586	CB	371	TMC3	C3	1	0.0862	12.011
5587	CB	371	TMC3	C4	1	-0.15	12.011
5588	CB	371	TMC3	C5	1	0.0862	12.011
5589	CB	371	TMC3	C6	1	-0.15	12.011
5590	C=O	371	TMC3	C	1	0.5438	12.011
5591	O=C	371	TMC3	O	1	-0.57	15.9994
5592	HCMM	371	TMC3	H	1	0.15	1.0079
5593	HCMM	371	TMC3	H1	1	0.15	1.0079
5594	HCMM	371	TMC3	H2	1	0.15	1.0079
5595	C=O	371	TMC3	C7	1	0.5438	12.011
5596	C=O	371	TMC3	C8	1	0.5438	12.011
5597	O=C	371	TMC3	O1	1	-0.57	15.9994
5598	O=C	371	TMC3	O2	1	-0.57	15.9994
5599	CB	372	MPD2	C	1	-0.15	12.011
5600	CB	372	MPD2	C1	1	0.117	12.011
5601	CB	372	MPD2	C2	1	-0.15	12.011
5602	CB	372	MPD2	C3	1	0.117	12.011
5603	CB	372	MPD2	C4	1	-0.15	12.011
5604	CB	372	MPD2	C5	1	-0.15	12.011
5605	HCMM	372	MPD2	H	1	0.15	1.0079
5606	HCMM	372	MPD2	H1	1	0.15	1.0079
5607	HCMM	372	MPD2	H2	1	0.15	1.0079
5608	HCMM	372	MPD2	H3	1	0.15	1.0079
5609	NC=O	372	MPD2	N	1	-0.547	14.0067
5610	HNCO	372	MPD2	H5	1	0.37	1.0079
5611	NC=O	372	MPD2	N1	1	-0.547	14.0067
5612	HNCO	372	MPD2	H7	1	0.37	1.0079
5613	CB	373	TMC3	C1	1	0.0862	12.011
5614	CB	373	TMC3	C2	1	-0.15	12.011
5615	CB	373	TMC3	C3	1	0.0862	12.011
5616	CB	373	TMC3	C4	1	-0.15	12.011
5617	CB	373	TMC3	C5	1	0.0862	12.011
5618	CB	373	TMC3	C6	1	-0.15	12.011
5619	C=O	373	TMC3	C	1	0.5438	12.011
5620	O=C	373	TMC3	O	1	-0.57	15.9994
5621	HCMM	373	TMC3	H	1	0.15	1.0079
5622	HCMM	373	TMC3	H1	1	0.15	1.0079
5623	HCMM	373	TMC3	H2	1	0.15	1.0079
5624	C=O	373	TMC3	C7	1	0.5438	12.011
5625	C=O	373	TMC3	C8	1	0.5438	12.011
5626	O=C	373	TMC3	O1	1	-0.57	15.9994
5627	O=C	373	TMC3	O2	1	-0.57	15.9994
5628	CB	374	TMC3	C1	1	0.0862	12.011
5629	CB	374	TMC3	C2	1	-0.15	12.011
5630	CB	374	TMC3	C3	1	0.0862	12.011
5631	CB	374	TMC3	C4	1	-0.15	12.011
5632	CB	374	TMC3	C5	1	0.0862	12.011
5633	CB	374	TMC3	C6	1	-0.15	12.011
5634	C=O	374	TMC3	C	1	0.5438	12.011
5635	O=C	374	TMC3	O	1	-0.57	15.9994
5636	HCMM	374	TMC3	H	1	0.15	1.0079
5637	HCMM	374	TMC3	H1	1	0.15	1.0079
5638	HCMM	374	TMC3	H2	1	0.15	1.0079
5639	C=O	374	TMC3	C7	1	0.5438	12.011
5640	C=O	374	TMC3	C8	1	0.5438	12.011
5641	O=C	374	TMC3	O1	1	-0.57	15.9994
5642	O=C	374	TMC3	O2	1	-0.57	15.9994
5643	CB	375	MPD2	C	1	-0.15	12.011
5644	CB	375	MPD2	C1	1	0.117	12.011
5645	CB	375	MPD2	C2	1	-0.15	12.011
5646	CB	375	MPD2	C3	1	0.117	12.011
5647	CB	375	MPD2	C4	1	-0.15	12.011
5648	CB	375	MPD2	C5	1	-0.15	12.011
5649	HCMM	375	MPD2	H	1	0.15	1.0079
5650	HCMM	375	MPD2	H1	1	0.15	1.0079
5651	HCMM	375	MPD2	H2	1	0.15	1.0079
5652	HCMM	375	MPD2	H3	1	0.15	1.0079
5653	NC=O	375	MPD2	N	1	-0.547	14.0067
5654	HNCO	375	MPD2	H5	1	0.37	1.0079
5655	NC=O	375	MPD2	N1	1	-0.547	14.0067
5656	HNCO	375	MPD2	H7	1	0.37	1.0079
5657	CB	376	TMC3	C1	1	0.0862	12.011
5658	CB	376	TMC3	C2	1	-0.15	12.011
5659	CB	376	TMC3	C3	1	0.0862	12.011
5660	CB	376	TMC3	C4	1	-0.15	12.011
5661	CB	376	TMC3	C5	1	0.0862	12.011
5662	CB	376	TMC3	C6	1	-0.15	12.011
5663	C=O	376	TMC3	C	1	0.5438	12.011
5664	O=C	376	TMC3	O	1	-0.57	15.9994
5665	HCMM	376	TMC3	H	1	0.15	1.0079
5666	HCMM	376	TMC3	H1	1	0.15	1.0079
5667	HCMM	376	TMC3	H2	1	0.15	1.0079
5668	C=O	376	TMC3	C7	1	0.5438	12.011
5669	C=O	376	TMC3	C8	1	0.5438	12.011
5670	O=C	376	TMC3	O1	1	-0.57	15.9994
5671	O=C	376	TMC3	O2	1	-0.57	15.9994
5672	CB	377	MPD2	C	1	-0.15	12.011
5673	CB	377	MPD2	C1	1	0.117	12.011
5674	CB	377	MPD2	C2	1	-0.15	12.011
5675	CB	377	MPD2	C3	1	0.117	12.011
5676	CB	377	MPD2	C4	1	-0.15	12.011
5677	CB	377	MPD2	C5	1	-0.15	12.011
5678	HCMM	377	MPD2	H	1	0.15	1.0079
5679	HCMM	377	MPD2	H1	1	0.15	1.0079
5680	HCMM	377	MPD2	H2	1	0.15	1.0079
5681	HCMM	377	MPD2	H3	1	0.15	1.0079
5682	NC=O	377	MPD2	N	1	-0.547	14.0067
5683	HNCO	377	MPD2	H5	1	0.37	1.0079
5684	NC=O	377	MPD2	N1	1	-0.547	14.0067
5685	HNCO	377	MPD2	H7	1	0.37	1.0079
5686	CB	378	TMC3	C1	1	0.0862	12.011
5687	CB	378	TMC3	C2	1	-0.15	12.011
5688	CB	378	TMC3	C3	1	0.0862	12.011
5689	CB	378	TMC3	C4	1	-0.15	12.011
5690	CB	378	TMC3	C5	1	0.0862	12.011
5691	CB	378	TMC3	C6	1	-0.15	12.011
5692	C=O	378	TMC3	C	1	0.5438	12.011
5693	O=C	378	TMC3	O	1	-0.57	15.9994
5694	HCMM	378	TMC3	H	1	0.15	1.0079
5695	HCMM	378	TMC3	H1	1	0.15	1.0079
5696	HCMM	378	TMC3	H2	1	0.15	1.0079
5697	C=O	378	TMC3	C7	1	0.5438	12.011
5698	C=O	378	TMC3	C8	1	0.5438	12.011
5699	O=C	378	TMC3	O1	1	-0.57	15.9994
5700	O=C	378	TMC3	O2	1	-0.57	15.9994
5701	CB	379	MPD2	C	1	-0.15	12.011
5702	CB	379	MPD2	C1	1	0.117	12.011
5703	CB	379	MPD2	C2	1	-0.15	12.011
5704	CB	379	MPD2	C3	1	0.117	12.011
5705	CB	379	MPD2	C4	1	-0.15	12.011
5706	CB	379	MPD2	C5	1	-0.15	12.011
5707	HCMM	379	MPD2	H	1	0.15	1.0079
5708	HCMM	379	MPD2	H1	1	0.15	1.0079
5709	HCMM	379	MPD2	H2	1	0.15	1.0079
5710	HCMM	379	MPD2	H3	1	0.15	1.0079
5711	NC=O	379	MPD2	N	1	-0.547	14.0067
5712	HNCO	379	MPD2	H5	1	0.37	1.0079
5713	NC=O	379	MPD2	N1	1	-0.547	14.0067
5714	HNCO	379	MPD2	H7	1	0.37	1.0079
5715	CB	380	TMC3	C1	1	0.0862	12.011
5716	CB	380	TMC3	C2	1	-0.15	12.011
5717	CB	380	TMC3	C3	1	0.0862	12.011
5718	CB	380	TMC3	C4	1	-0.15	12.011
5719	CB	380	TMC3	C5	1	0.0862	12.011
5720	CB	380	TMC3	C6	1	-0.15	12.011
5721	C=O	380	TMC3	C	1	0.5438	12.011
5722	O=C	380	TMC3	O	1	-0.57	15.9994
5723	HCMM	380	TMC3	H	1	0.15	1.0079
5724	HCMM	380	TMC3	H1	1	0.15	1.0079
5725	HCMM	380	TMC3	H2	1	0.15	1.0079
5726	C=O	380	TMC3	C7	1	0.5438	12.011
5727	C=O	380	TMC3	C8	1	0.5438	12.011
5728	O=C	380	TMC3	O1	1	-0.57	15.9994
5729	O=C	380	TMC3	O2	1	-0.57	15.9994
5730	CB	381	TMC3	C1	1	0.0862	12.011
5731	CB	381	TMC3	C2	1	-0.15	12.011
5732	CB	381	TMC3	C3	1	0.0862	12.011
5733	CB	381	TMC3	C4	1	-0.15	12.011
5734	CB	381	TMC3	C5	1	0.0862	12.011
5735	CB	381	TMC3	C6	1	-0.15	12.011
5736	C=O	381	TMC3	C	1	0.5438	12.011
5737	O=C	381	TMC3	O	1	-0.57	15.9994
5738	HCMM	381	TMC3	H	1	0.15	1.0079
5739	HCMM	381	TMC3	H1	1	0.15	1.0079
5740	HCMM	381	TMC3	H2	1	0.15	1.0079
5741	C=O	381	TMC3	C7	1	0.5438	12.011
5742	C=O	381	TMC3	C8	1	0.5438	12.011
5743	O=C	381	TMC3	O1	1	-0.57	15.9994
5744	O=C	381	TMC3	O2	1	-0.57	15.9994
5745	CB	382	MPD2	C	1	-0.15	12.011
5746	CB	382	MPD2	C1	1	0.117	12.011
5747	CB	382	MPD2	C2	1	-0.15	12.011
5748	CB	382	MPD2	C3	1	0.117	12.011
5749	CB	382	MPD2	C4	1	-0.15	12.011
5750	CB	382	MPD2	C5	1	-0.15	12.011
5751	HCMM	382	MPD2	H	1	0.15	1.0079
5752	HCMM	382	MPD2	H1	1	0.15	1.0079
5753	HCMM	382	MPD2	H2	1	0.15	1.0079
5754	HCMM	382	MPD2	H3	1	0.15	1.0079
5755	NC=O	382	MPD2	N	1	-0.547	14.0067
5756	HNCO	382	MPD2	H5	1	0.37	1.0079
5757	NC=O	382	MPD2	N1	1	-0.547	14.0067
5758	HNCO	382	MPD2	H7	1	0.37	1.0079
5759	CB	383	TMC3	C1	1	0.0862	12.011
5760	CB	383	TMC3	C2	1	-0.15	12.011
5761	CB	383	TMC3	C3	1	0.0862	12.011
5762	CB	383	TMC3	C4	1	-0.15	12.011
5763	CB	383	TMC3	C5	1	0.0862	12.011
5764	CB	383	TMC3	C6	1	-0.15	12.011
5765	C=O	383	TMC3	C	1	0.5438	12.011
5766	O=C	383	TMC3	O	1	-0.57	15.9994
5767	HCMM	383	TMC3	H	1	0.15	1.0079
5768	HCMM	383	TMC3	H1	1	0.15	1.0079
5769	HCMM	383	TMC3	H2	1	0.15	1.0079
5770	C=O	383	TMC3	C7	1	0.5438	12.011
5771	C=O	383	TMC3	C8	1	0.5438	12.011
5772	O=C	383	TMC3	O1	1	-0.57	15.9994
5773	O=C	383	TMC3	O2	1	-0.57	15.9994
5774	CB	384	MPD2	C	1	-0.15	12.011
5775	CB	384	MPD2	C1	1	0.117	12.011
5776	CB	384	MPD2	C2	1	-0.15	12.011
5777	CB	384	MPD2	C3	1	0.117	12.011
5778	CB	384	MPD2	C4	1	-0.15	12.011
5779	CB	384	MPD2	C5	1	-0.15	12.011
5780	HCMM	384	MPD2	H	1	0.15	1.0079
5781	HCMM	384	MPD2	H1	1	0.15	1.0079
5782	HCMM	384	MPD2	H2	1	0.15	1.0079
5783	HCMM	384	MPD2	H3	1	0.15	1.0079
5784	NC=O	384	MPD2	N	1	-0.547	14.0067
5785	HNCO	384	MPD2	H5	1	0.37	1.0079
5786	NC=O	384	MPD2	N1	1	-0.547	14.0067
5787	HNCO	384	MPD2	H7	1	0.37	1.0079
5788	CB	385	TMC3	C1	1	0.0862	12.011
5789	CB	385	TMC3	C2	1	-0.15	12.011
5790	CB	385	TMC3	C3	1	0.0862	12.011
5791	CB	385	TMC3	C4	1	-0.15	12.011
5792	CB	385	TMC3	C5	1	0.0862	12.011
5793	CB	385	TMC3	C6	1	-0.15	12.011
5794	C=O	385	TMC3	C	1	0.5438	12.011
5795	O=C	385	TMC3	O	1	-0.57	15.9994
5796	HCMM	385	TMC3	H	1	0.15	1.0079
5797	HCMM	385	TMC3	H1	1	0.15	1.0079
5798	HCMM	385	TMC3	H2	1	0.15	1.0079
5799	C=O	385	TMC3	C7	1	0.5438	12.011
5800	C=O	385	TMC3	C8	1	0.5438	12.011
5801	O=C	385	TMC3	O1	1	-0.57	15.9994
5802	O=C	385	TMC3	O2	1	-0.57	15.9994
5803	CB	386	TMC3	C1	1	0.0862	12.011
5804	CB	386	TMC3	C2	1	-0.15	12.011
5805	CB	386	TMC3	C3	1	0.0862	12.011
5806	CB	386	TMC3	C4	1	-0.15	12.011
5807	CB	386	TMC3	C5	1	0.0862	12.011
5808	CB	386	TMC3	C6	1	-0.15	12.011
5809	C=O	386	TMC3	C	1	0.5438	12.011
5810	O=C	386	TMC3	O	1	-0.57	15.9994
5811	HCMM	386	TMC3	H	1	0.15	1.0079
5812	HCMM	386	TMC3	H1	1	0.15	1.0079
5813	HCMM	386	TMC3	H2	1	0.15	1.0079
5814	C=O	386	TMC3	C7	1	0.5438	12.011
5815	C=O	386	TMC3	C8	1	0.5438	12.011
5816	O=C	386	TMC3	O1	1	-0.57	15.9994
5817	O=C	386	TMC3	O2	1	-0.57	15.9994
5818	CB	387	MPD2	C	1	-0.15	12.011
5819	CB	387	MPD2	C1	1	0.117	12.011
5820	CB	387	MPD2	C2	1	-0.15	12.011
5821	CB	387	MPD2	C3	1	0.117	12.011
5822	CB	387	MPD2	C4	1	-0.15	12.011
5823	CB	387	MPD2	C5	1	-0.15	12.011
5824	HCMM	387	MPD2	H	1	0.15	1.0079
5825	HCMM	387	MPD2	H1	1	0.15	1.0079
5826	HCMM	387	MPD2	H2	1	0.15	1.0079
5827	HCMM	387	MPD2	H3	1	0.15	1.0079
5828	NC=O	387	MPD2	N	1	-0.547	14.0067
5829	HNCO	387	MPD2	H5	1	0.37	1.0079
5830	NC=O	387	MPD2	N1	1	-0.547	14.0067
5831	HNCO	387	MPD2	H7	1	0.37	1.0079
5832	CB	388	TMC3	C1	1	0.0862	12.011
5833	CB	388	TMC3	C2	1	-0.15	12.011
5834	CB	388	TMC3	C3	1	0.0862	12.011
5835	CB	388	TMC3	C4	1	-0.15	12.011
5836	CB	388	TMC3	C5	1	0.0862	12.011
5837	CB	388	TMC3	C6	1	-0.15	12.011
5838	C=O	388	TMC3	C	1	0.5438	12.011
5839	O=C	388	TMC3	O	1	-0.57	15.9994
5840	HCMM	388	TMC3	H	1	0.15	1.0079
5841	HCMM	388	TMC3	H1	1	0.15	1.0079
5842	HCMM	388	TMC3	H2	1	0.15	1.0079
5843	C=O	388	TMC3	C7	1	0.5438	12.011
5844	C=O	388	TMC3	C8	1	0.5438	12.011
5845	O=C	388	TMC3	O1	1	-0.57	15.9994
5846	O=C	388	TMC3	O2	1	-0.57	15.9994
5847	CB	389	MPD2	C	1	-0.15	12.011
5848	CB	389	MPD2	C1	1	0.117	12.011
5849	CB	389	MPD2	C2	1	-0.15	12.011
5850	CB	389	MPD2	C3	1	0.117	12.011
5851	CB	389	MPD2	C4	1	-0.15	12.011
5852	CB	389	MPD2	C5	1	-0.15	12.011
5853	HCMM	389	MPD2	H	1	0.15	1.0079
5854	HCMM	389	MPD2	H1	1	0.15	1.0079
5855	HCMM	389	MPD2	H2	1	0.15	1.0079
5856	HCMM	389	MPD2	H3	1	0.15	1.0079
5857	NC=O	389	MPD2	N	1	-0.547	14.0067
5858	HNCO	389	MPD2	H5	1	0.37	1.0079
5859	NC=O	389	MPD2	N1	1	-0.547	14.0067
5860	HNCO	389	MPD2	H7	1	0.37	1.0079
5861	CB	390	TMC3	C1	1	0.0862	12.011
5862	CB	390	TMC3	C2	1	-0.15	12.011
5863	CB	390	TMC3	C3	1	0.0862	12.011
5864	CB	390	TMC3	C4	1	-0.15	12.011
5865	CB	390	TMC3	C5	1	0.0862	12.011
5866	CB	390	TMC3	C6	1	-0.15	12.011
5867	C=O	390	TMC3	C	1	0.5438	12.011
5868	O=C	390	TMC3	O	1	-0.57	15.9994
5869	HCMM	390	TMC3	H	1	0.15	1.0079
5870	HCMM	390	TMC3	H1	1	0.15	1.0079
5871	HCMM	390	TMC3	H2	1	0.15	1.0079
5872	C=O	390	TMC3	C7	1	0.5438	12.011
5873	C=O	390	TMC3	C8	1	0.5438	12.011
5874	O=C	390	TMC3	O1	1	-0.57	15.9994
5875	O=C	390	TMC3	O2	1	-0.57	15.9994
5876	CB	391	MPD2	C	1	-0.15	12.011
5877	CB	391	MPD2	C1	1	0.117	12.011
5878	CB	391	MPD2	C2	1	-0.15	12.011
5879	CB	391	MPD2	C3	1	0.117	12.011
5880	CB	391	MPD2	C4	1	-0.15	12.011
5881	CB	391	MPD2	C5	1	-0.15	12.011
5882	HCMM	391	MPD2	H	1	0.15	1.0079
5883	HCMM	391	MPD2	H1	1	0.15	1.0079
5884	HCMM	391	MPD2	H2	1	0.15	1.0079
5885	HCMM	391	MPD2	H3	1	0.15	1.0079
5886	NC=O	391	MPD2	N	1	-0.547	14.0067
5887	HNCO	391	MPD2	H5	1	0.37	1.0079
5888	NC=O	391	MPD2	N1	1	-0.547	14.0067
5889	HNCO	391	MPD2	H7	1	0.37	1.0079
5890	CB	392	TMC3	C1	1	0.0862	12.011
5891	CB	392	TMC3	C2	1	-0.15	12.011
5892	CB	392	TMC3	C3	1	0.0862	12.011
5893	CB	392	TMC3	C4	1	-0.15	12.011
5894	CB	392	TMC3	C5	1	0.0862	12.011
5895	CB	392	TMC3	C6	1	-0.15	12.011
5896	C=O	392	TMC3	C	1	0.5438	12.011
5897	O=C	392	TMC3	O	1	-0.57	15.9994
5898	HCMM	392	TMC3	H	1	0.15	1.0079
5899	HCMM	392	TMC3	H1	1	0.15	1.0079
5900	HCMM	392	TMC3	H2	1	0.15	1.0079
5901	C=O	392	TMC3	C7	1	0.5438	12.011
5902	C=O	392	TMC3	C8	1	0.5438	12.011
5903	O=C	392	TMC3	O1	1	-0.57	15.9994
5904	O=C	392	TMC3	O2	1	-0.57	15.9994
5905	CB	393	TMC3	C1	1	0.0862	12.011
5906	CB	393	TMC3	C2	1	-0.15	12.011
5907	CB	393	TMC3	C3	1	0.0862	12.011
5908	CB	393	TMC3	C4	1	-0.15	12.011
5909	CB	393	TMC3	C5	1	0.0862	12.011
5910	CB	393	TMC3	C6	1	-0.15	12.011
5911	C=O	393	TMC3	C	1	0.5438	12.011
5912	O=C	393	TMC3	O	1	-0.57	15.9994
5913	HCMM	393	TMC3	H	1	0.15	1.0079
5914	HCMM	393	TMC3	H1	1	0.15	1.0079
5915	HCMM	393	TMC3	H2	1	0.15	1.0079
5916	C=O	393	TMC3	C7	1	0.5438	12.011
5917	C=O	393	TMC3	C8	1	0.5438	12.011
5918	O=C	393	TMC3	O1	1	-0.57	15.9994
5919	O=C	393	TMC3	O2	1	-0.57	15.9994
5920	CB	394	TMC3	C1	1	0.0862	12.011
5921	CB	394	TMC3	C2	1	-0.15	12.011
5922	CB	394	TMC3	C3	1	0.0862	12.011
5923	CB	394	TMC3	C4	1	-0.15	12.011
5924	CB	394	TMC3	C5	1	0.0862	12.011
5925	CB	394	TMC3	C6	1	-0.15	12.011
5926	C=O	394	TMC3	C	1	0.5438	12.011
5927	O=C	394	TMC3	O	1	-0.57	15.9994
5928	HCMM	394	TMC3	H	1	0.15	1.0079
5929	HCMM	394	TMC3	H1	1	0.15	1.0079
5930	HCMM	394	TMC3	H2	1	0.15	1.0079
5931	C=O	394	TMC3	C7	1	0.5438	12.011
5932	C=O	394	TMC3	C8	1	0.5438	12.011
5933	O=C	394	TMC3	O1	1	-0.57	15.9994
5934	O=C	394	TMC3	O2	1	-0.57	15.9994
5935	CB	395	TMC3	C1	1	0.0862	12.011
5936	CB	395	TMC3	C2	1	-0.15	12.011
5937	CB	395	TMC3	C3	1	0.0862	12.011
5938	CB	395	TMC3	C4	1	-0.15	12.011
5939	CB	395	TMC3	C5	1	0.0862	12.011
5940	CB	395	TMC3	C6	1	-0.15	12.011
5941	C=O	395	TMC3	C	1	0.5438	12.011
5942	O=C	395	TMC3	O	1	-0.57	15.9994
5943	HCMM	395	TMC3	H	1	0.15	1.0079
5944	HCMM	395	TMC3	H1	1	0.15	1.0079
5945	HCMM	395	TMC3	H2	1	0.15	1.0079
5946	C=O	395	TMC3	C7	1	0.5438	12.011
5947	C=O	395	TMC3	C8	1	0.5438	12.011
5948	O=C	395	TMC3	O1	1	-0.57	15.9994
5949	O=C	395	TMC3	O2	1	-0.57	15.9994
5950	CB	396	MPD2	C	1	-0.15	12.011
5951	CB	396	MPD2	C1	1	0.117	12.011
5952	CB	396	MPD2	C2	1	-0.15	12.011
5953	CB	396	MPD2	C3	1	0.117	12.011
5954	CB	396	MPD2	C4	1	-0.15	12.011
5955	CB	396	MPD2	C5	1	-0.15	12.011
5956	HCMM	396	MPD2	H	1	0.15	1.0079
5957	HCMM	396	MPD2	H1	1	0.15	1.0079
5958	HCMM	396	MPD2	H2	1	0.15	1.0079
5959	HCMM	396	MPD2	H3	1	0.15	1.0079
5960	NC=O	396	MPD2	N	1	-0.547	14.0067
5961	HNCO	396	MPD2	H5	1	0.37	1.0079
5962	NC=O	396	MPD2	N1	1	-0.547	14.0067
5963	HNCO	396	MPD2	H7	1	0.37	1.0079
5964	CB	397	TMC3	C1	1	0.0862	12.011
5965	CB	397	TMC3	C2	1	-0.15	12.011
5966	CB	397	TMC3	C3	1	0.0862	12.011
5967	CB	397	TMC3	C4	1	-0.15	12.011
5968	CB	397	TMC3	C5	1	0.0862	12.011
5969	CB	397	TMC3	C6	1	-0.15	12.011
5970	C=O	397	TMC3	C	1	0.5438	12.011
5971	O=C	397	TMC3	O	1	-0.57	15.9994
5972	HCMM	397	TMC3	H	1	0.15	1.0079
5973	HCMM	397	TMC3	H1	1	0.15	1.0079
5974	HCMM	397	TMC3	H2	1	0.15	1.0079
5975	C=O	397	TMC3	C7	1	0.5438	12.011
5976	C=O	397	TMC3	C8	1	0.5438	12.011
5977	O=C	397	TMC3	O1	1	-0.57	15.9994
5978	O=C	397	TMC3	O2	1	-0.57	15.9994
5979	CB	398	MPD2	C	1	-0.15	12.011
5980	CB	398	MPD2	C1	1	0.117	12.011
5981	CB	398	MPD2	C2	1	-0.15	12.011
5982	CB	398	MPD2	C3	1	0.117	12.011
5983	CB	398	MPD2	C4	1	-0.15	12.011
5984	CB	398	MPD2	C5	1	-0.15	12.011
5985	HCMM	398	MPD2	H	1	0.15	1.0079
5986	HCMM	398	MPD2	H1	1	0.15	1.0079
5987	HCMM	398	MPD2	H2	1	0.15	1.0079
5988	HCMM	398	MPD2	H3	1	0.15	1.0079
5989	NC=O	398	MPD2	N	1	-0.547	14.0067
5990	HNCO	398	MPD2	H5	1	0.37	1.0079
5991	NC=O	398	MPD2	N1	1	-0.547	14.0067
5992	HNCO	398	MPD2	H7	1	0.37	1.0079
5993	CB	399	TMC3	C1	1	0.0862	12.011
5994	CB	399	TMC3	C2	1	-0.15	12.011
5995	CB	399	TMC3	C3	1	0.0862	12.011
5996	CB	399	TMC3	C4	1	-0.15	12.011
5997	CB	399	TMC3	C5	1	0.0862	12.011
5998	CB	399	TMC3	C6	1	-0.15	12.011
5999	C=O	399	TMC3	C	1	0.5438	12.011
6000	O=C	399	TMC3	O	1	-0.57	15.9994
6001	HCMM	399	TMC3	H	1	0.15	1.0079
6002	HCMM	399	TMC3	H1	1	0.15	1.0079
6003	HCMM	399	TMC3	H2	1	0.15	1.0079
6004	C=O	399	TMC3	C7	1	0.5438	12.011
6005	C=O	399	TMC3	C8	1	0.5438	12.011
6006	O=C	399	TMC3	O1	1	-0.57	15.9994
6007	O=C	399	TMC3	O2	1	-0.57	15.9994
6008	CB	400	TMC3	C1	1	0.0862	12.011
6009	CB	400	TMC3	C2	1	-0.15	12.011
6010	CB	400	TMC3	C3	1	0.0862	12.011
6011	CB	400	TMC3	C4	1	-0.15	12.011
6012	CB	400	TMC3	C5	1	0.0862	12.011
6013	CB	400	TMC3	C6	1	-0.15	12.011
6014	C=O	400	TMC3	C	1	0.5438	12.011
6015	O=C	400	TMC3	O	1	-0.57	15.9994
6016	HCMM	400	TMC3	H	1	0.15	1.0079
6017	HCMM	400	TMC3	H1	1	0.15	1.0079
6018	HCMM	400	TMC3	H2	1	0.15	1.0079
6019	C=O	400	TMC3	C7	1	0.5438	12.011
6020	C=O	400	TMC3	C8	1	0.5438	12.011
6021	O=C	400	TMC3	O1	1	-0.57	15.9994
6022	O=C	400	TMC3	O2	1	-0.57	15.9994
6023	CB	401	MPD2	C	1	-0.15	12.011
6024	CB	401	MPD2	C1	1	0.117	12.011
6025	CB	401	MPD2	C2	1	-0.15	12.011
6026	CB	401	MPD2	C3	1	0.117	12.011
6027	CB	401	MPD2	C4	1	-0.15	12.011
6028	CB	401	MPD2	C5	1	-0.15	12.011
6029	HCMM	401	MPD2	H	1	0.15	1.0079
6030	HCMM	401	MPD2	H1	1	0.15	1.0079
6031	HCMM	401	MPD2	H2	1	0.15	1.0079
6032	HCMM	401	MPD2	H3	1	0.15	1.0079
6033	NC=O	401	MPD2	N	1	-0.547	14.0067
6034	HNCO	401	MPD2	H5	1	0.37	1.0079
6035	NC=O	401	MPD2	N1	1	-0.547	14.0067
6036	HNCO	401	MPD2	H7	1	0.37	1.0079
6037	CB	402	TMC3	C1	1	0.0862	12.011
6038	CB	402	TMC3	C2	1	-0.15	12.011
6039	CB	402	TMC3	C3	1	0.0862	12.011
6040	CB	402	TMC3	C4	1	-0.15	12.011
6041	CB	402	TMC3	C5	1	0.0862	12.011
6042	CB	402	TMC3	C6	1	-0.15	12.011
6043	C=O	402	TMC3	C	1	0.5438	12.011
6044	O=C	402	TMC3	O	1	-0.57	15.9994
6045	HCMM	402	TMC3	H	1	0.15	1.0079
6046	HCMM	402	TMC3	H1	1	0.15	1.0079
6047	HCMM	402	TMC3	H2	1	0.15	1.0079
6048	C=O	402	TMC3	C7	1	0.5438	12.011
6049	C=O	402	TMC3	C8	1	0.5438	12.011
6050	O=C	402	TMC3	O1	1	-0.57	15.9994
6051	O=C	402	TMC3	O2	1	-0.57	15.9994
6052	CB	403	MPD2	C	1	-0.15	12.011
6053	CB	403	MPD2	C1	1	0.117	12.011
6054	CB	403	MPD2	C2	1	-0.15	12.011
6055	CB	403	MPD2	C3	1	0.117	12.011
6056	CB	403	MPD2	C4	1	-0.15	12.011
6057	CB	403	MPD2	C5	1	-0.15	12.011
6058	HCMM	403	MPD2	H	1	0.15	1.0079
6059	HCMM	403	MPD2	H1	1	0.15	1.0079
6060	HCMM	403	MPD2	H2	1	0.15	1.0079
6061	HCMM	403	MPD2	H3	1	0.15	1.0079
6062	NC=O	403	MPD2	N	1	-0.547	14.0067
6063	HNCO	403	MPD2	H5	1	0.37	1.0079
6064	NC=O	403	MPD2	N1	1	-0.547	14.0067
6065	HNCO	403	MPD2	H7	1	0.37	1.0079
6066	CB	404	TMC3	C1	1	0.0862	12.011
6067	CB	404	TMC3	C2	1	-0.15	12.011
6068	CB	404	TMC3	C3	1	0.0862	12.011
6069	CB	404	TMC3	C4	1	-0.15	12.011
6070	CB	404	TMC3	C5	1	0.0862	12.011
6071	CB	404	TMC3	C6	1	-0.15	12.011
6072	C=O	404	TMC3	C	1	0.5438	12.011
6073	O=C	404	TMC3	O	1	-0.57	15.9994
6074	HCMM	404	TMC3	H	1	0.15	1.0079
6075	HCMM	404	TMC3	H1	1	0.15	1.0079
6076	HCMM	404	TMC3	H2	1	0.15	1.0079
6077	C=O	404	TMC3	C7	1	0.5438	12.011
6078	C=O	404	TMC3	C8	1	0.5438	12.011
6079	O=C	404	TMC3	O1	1	-0.57	15.9994
6080	O=C	404	TMC3	O2	1	-0.57	15.9994
6081	CB	405	MPD2	C	1	-0.15	12.011
6082	CB	405	MPD2	C1	1	0.117	12.011
6083	CB	405	MPD2	C2	1	-0.15	12.011
6084	CB	405	MPD2	C3	1	0.117	12.011
6085	CB	405	MPD2	C4	1	-0.15	12.011
6086	CB	405	MPD2	C5	1	-0.15	12.011
6087	HCMM	405	MPD2	H	1	0.15	1.0079
6088	HCMM	405	MPD2	H1	1	0.15	1.0079
6089	HCMM	405	MPD2	H2	1	0.15	1.0079
6090	HCMM	405	MPD2	H3	1	0.15	1.0079
6091	NC=O	405	MPD2	N	1	-0.547	14.0067
6092	HNCO	405	MPD2	H5	1	0.37	1.0079
6093	NC=O	405	MPD2	N1	1	-0.547	14.0067
6094	HNCO	405	MPD2	H7	1	0.37	1.0079
6095	CB	406	TMC3	C1	1	0.0862	12.011
6096	CB	406	TMC3	C2	1	-0.15	12.011
6097	CB	406	TMC3	C3	1	0.0862	12.011
6098	CB	406	TMC3	C4	1	-0.15	12.011
6099	CB	406	TMC3	C5	1	0.0862	12.011
6100	CB	406	TMC3	C6	1	-0.15	12.011
6101	C=O	406	TMC3	C	1	0.5438	12.011
6102	O=C	406	TMC3	O	1	-0.57	15.9994
6103	HCMM	406	TMC3	H	1	0.15	1.0079
6104	HCMM	406	TMC3	H1	1	0.15	1.0079
6105	HCMM	406	TMC3	H2	1	0.15	1.0079
6106	C=O	406	TMC3	C7	1	0.5438	12.011
6107	C=O	406	TMC3	C8	1	0.5438	12.011
6108	O=C	406	TMC3	O1	1	-0.57	15.9994
6109	O=C	406	TMC3	O2	1	-0.57	15.9994
6110	CB	407	MPD2	C	1	-0.15	12.011
6111	CB	407	MPD2	C1	1	0.117	12.011
6112	CB	407	MPD2	C2	1	-0.15	12.011
6113	CB	407	MPD2	C3	1	0.117	12.011
6114	CB	407	MPD2	C4	1	-0.15	12.011
6115	CB	407	MPD2	C5	1	-0.15	12.011
6116	HCMM	407	MPD2	H	1	0.15	1.0079
6117	HCMM	407	MPD2	H1	1	0.15	1.0079
6118	HCMM	407	MPD2	H2	1	0.15	1.0079
6119	HCMM	407	MPD2	H3	1	0.15	1.0079
6120	NC=O	407	MPD2	N	1	-0.547	14.0067
6121	HNCO	407	MPD2	H5	1	0.37	1.0079
6122	NC=O	407	MPD2	N1	1	-0.547	14.0067
6123	HNCO	407	MPD2	H7	1	0.37	1.0079
6124	CB	408	TMC3	C1	1	0.0862	12.011
6125	CB	408	TMC3	C2	1	-0.15	12.011
6126	CB	408	TMC3	C3	1	0.0862	12.011
6127	CB	408	TMC3	C4	1	-0.15	12.011
6128	CB	408	TMC3	C5	1	0.0862	12.011
6129	CB	408	TMC3	C6	1	-0.15	12.011
6130	C=O	408	TMC3	C	1	0.5438	12.011
6131	O=C	408	TMC3	O	1	-0.57	15.9994
6132	HCMM	408	TMC3	H	1	0.15	1.0079
6133	HCMM	408	TMC3	H1	1	0.15	1.0079
6134	HCMM	408	TMC3	H2	1	0.15	1.0079
6135	C=O	408	TMC3	C7	1	0.5438	12.011
6136	C=O	408	TMC3	C8	1	0.5438	12.011
6137	O=C	408	TMC3	O1	1	-0.57	15.9994
6138	O=C	408	TMC3	O2	1	-0.57	15.9994
6139	CB	409	MPD2	C	1	-0.15	12.011
6140	CB	409	MPD2	C1	1	0.117	12.011
6141	CB	409	MPD2	C2	1	-0.15	12.011
6142	CB	409	MPD2	C3	1	0.117	12.011
6143	CB	409	MPD2	C4	1	-0.15	12.011
6144	CB	409	MPD2	C5	1	-0.15	12.011
6145	HCMM	409	MPD2	H	1	0.15	1.0079
6146	HCMM	409	MPD2	H1	1	0.15	1.0079
6147	HCMM	409	MPD2	H2	1	0.15	1.0079
6148	HCMM	409	MPD2	H3	1	0.15	1.0079
6149	NC=O	409	MPD2	N	1	-0.547	14.0067
6150	HNCO	409	MPD2	H5	1	0.37	1.0079
6151	NC=O	409	MPD2	N1	1	-0.547	14.0067
6152	HNCO	409	MPD2	H7	1	0.37	1.0079
6153	CB	410	TMC3	C1	1	0.0862	12.011
6154	CB	410	TMC3	C2	1	-0.15	12.011
6155	CB	410	TMC3	C3	1	0.0862	12.011
6156	CB	410	TMC3	C4	1	-0.15	12.011
6157	CB	410	TMC3	C5	1	0.0862	12.011
6158	CB	410	TMC3	C6	1	-0.15	12.011
6159	C=O	410	TMC3	C	1	0.5438	12.011
6160	O=C	410	TMC3	O	1	-0.57	15.9994
6161	HCMM	410	TMC3	H	1	0.15	1.0079
6162	HCMM	410	TMC3	H1	1	0.15	1.0079
6163	HCMM	410	TMC3	H2	1	0.15	1.0079
6164	C=O	410	TMC3	C7	1	0.5438	12.011
6165	C=O	410	TMC3	C8	1	0.5438	12.011
6166	O=C	410	TMC3	O1	1	-0.57	15.9994
6167	O=C	410	TMC3	O2	1	-0.57	15.9994
6168	CB	411	MPD2	C	1	-0.15	12.011
6169	CB	411	MPD2	C1	1	0.117	12.011
6170	CB	411	MPD2	C2	1	-0.15	12.011
6171	CB	411	MPD2	C3	1	0.117	12.011
6172	CB	411	MPD2	C4	1	-0.15	12.011
6173	CB	411	MPD2	C5	1	-0.15	12.011
6174	HCMM	411	MPD2	H	1	0.15	1.0079
6175	HCMM	411	MPD2	H1	1	0.15	1.0079
6176	HCMM	411	MPD2	H2	1	0.15	1.0079
6177	HCMM	411	MPD2	H3	1	0.15	1.0079
6178	NC=O	411	MPD2	N	1	-0.547	14.0067
6179	HNCO	411	MPD2	H5	1	0.37	1.0079
6180	NC=O	411	MPD2	N1	1	-0.547	14.0067
6181	HNCO	411	MPD2	H7	1	0.37	1.0079
6182	CB	412	TMC3	C1	1	0.0862	12.011
6183	CB	412	TMC3	C2	1	-0.15	12.011
6184	CB	412	TMC3	C3	1	0.0862	12.011
6185	CB	412	TMC3	C4	1	-0.15	12.011
6186	CB	412	TMC3	C5	1	0.0862	12.011
6187	CB	412	TMC3	C6	1	-0.15	12.011
6188	C=O	412	TMC3	C	1	0.5438	12.011
6189	O=C	412	TMC3	O	1	-0.57	15.9994
6190	HCMM	412	TMC3	H	1	0.15	1.0079
6191	HCMM	412	TMC3	H1	1	0.15	1.0079
6192	HCMM	412	TMC3	H2	1	0.15	1.0079
6193	C=O	412	TMC3	C7	1	0.5438	12.011
6194	C=O	412	TMC3	C8	1	0.5438	12.011
6195	O=C	412	TMC3	O1	1	-0.57	15.9994
6196	O=C	412	TMC3	O2	1	-0.57	15.9994
6197	CB	413	MPD2	C	1	-0.15	12.011
6198	CB	413	MPD2	C1	1	0.117	12.011
6199	CB	413	MPD2	C2	1	-0.15	12.011
6200	CB	413	MPD2	C3	1	0.117	12.011
6201	CB	413	MPD2	C4	1	-0.15	12.011
6202	CB	413	MPD2	C5	1	-0.15	12.011
6203	HCMM	413	MPD2	H	1	0.15	1.0079
6204	HCMM	413	MPD2	H1	1	0.15	1.0079
6205	HCMM	413	MPD2	H2	1	0.15	1.0079
6206	HCMM	413	MPD2	H3	1	0.15	1.0079
6207	NC=O	413	MPD2	N	1	-0.547	14.0067
6208	HNCO	413	MPD2	H5	1	0.37	1.0079
6209	NC=O	413	MPD2	N1	1	-0.547	14.0067
6210	HNCO	413	MPD2	H7	1	0.37	1.0079
6211	CB	414	TMC3	C1	1	0.0862	12.011
6212	CB	414	TMC3	C2	1	-0.15	12.011
6213	CB	414	TMC3	C3	1	0.0862	12.011
6214	CB	414	TMC3	C4	1	-0.15	12.011
6215	CB	414	TMC3	C5	1	0.0862	12.011
6216	CB	414	TMC3	C6	1	-0.15	12.011
6217	C=O	414	TMC3	C	1	0.5438	12.011
6218	O=C	414	TMC3	O	1	-0.57	15.9994
6219	HCMM	414	TMC3	H	1	0.15	1.0079
6220	HCMM	414	TMC3	H1	1	0.15	1.0079
6221	HCMM	414	TMC3	H2	1	0.15	1.0079
6222	C=O	414	TMC3	C7	1	0.5438	12.011
6223	C=O	414	TMC3	C8	1	0.5438	12.011
6224	O=C	414	TMC3	O1	1	-0.57	15.9994
6225	O=C	414	TMC3	O2	1	-0.57	15.9994
6226	CB	415	TMC3	C1	1	0.0862	12.011
6227	CB	415	TMC3	C2	1	-0.15	12.011
6228	CB	415	TMC3	C3	1	0.0862	12.011
6229	CB	415	TMC3	C4	1	-0.15	12.011
6230	CB	415	TMC3	C5	1	0.0862	12.011
6231	CB	415	TMC3	C6	1	-0.15	12.011
6232	C=O	415	TMC3	C	1	0.5438	12.011
6233	O=C	415	TMC3	O	1	-0.57	15.9994
6234	HCMM	415	TMC3	H	1	0.15	1.0079
6235	HCMM	415	TMC3	H1	1	0.15	1.0079
6236	HCMM	415	TMC3	H2	1	0.15	1.0079
6237	C=O	415	TMC3	C7	1	0.5438	12.011
6238	C=O	415	TMC3	C8	1	0.5438	12.011
6239	O=C	415	TMC3	O1	1	-0.57	15.9994
6240	O=C	415	TMC3	O2	1	-0.57	15.9994
6241	CB	416	MPD2	C	1	-0.15	12.011
6242	CB	416	MPD2	C1	1	0.117	12.011
6243	CB	416	MPD2	C2	1	-0.15	12.011
6244	CB	416	MPD2	C3	1	0.117	12.011
6245	CB	416	MPD2	C4	1	-0.15	12.011
6246	CB	416	MPD2	C5	1	-0.15	12.011
6247	HCMM	416	MPD2	H	1	0.15	1.0079
6248	HCMM	416	MPD2	H1	1	0.15	1.0079
6249	HCMM	416	MPD2	H2	1	0.15	1.0079
6250	HCMM	416	MPD2	H3	1	0.15	1.0079
6251	NC=O	416	MPD2	N	1	-0.547	14.0067
6252	HNCO	416	MPD2	H5	1	0.37	1.0079
6253	NC=O	416	MPD2	N1	1	-0.547	14.0067
6254	HNCO	416	MPD2	H7	1	0.37	1.0079
6255	CB	417	TMC3	C1	1	0.0862	12.011
6256	CB	417	TMC3	C2	1	-0.15	12.011
6257	CB	417	TMC3	C3	1	0.0862	12.011
6258	CB	417	TMC3	C4	1	-0.15	12.011
6259	CB	417	TMC3	C5	1	0.0862	12.011
6260	CB	417	TMC3	C6	1	-0.15	12.011
6261	C=O	417	TMC3	C	1	0.5438	12.011
6262	O=C	417	TMC3	O	1	-0.57	15.9994
6263	HCMM	417	TMC3	H	1	0.15	1.0079
6264	HCMM	417	TMC3	H1	1	0.15	1.0079
6265	HCMM	417	TMC3	H2	1	0.15	1.0079
6266	C=O	417	TMC3	C7	1	0.5438	12.011
6267	C=O	417	TMC3	C8	1	0.5438	12.011
6268	O=C	417	TMC3	O1	1	-0.57	15.9994
6269	O=C	417	TMC3	O2	1	-0.57	15.9994
6270	CB	418	TMC3	C1	1	0.0862	12.011
6271	CB	418	TMC3	C2	1	-0.15	12.011
6272	CB	418	TMC3	C3	1	0.0862	12.011
6273	CB	418	TMC3	C4	1	-0.15	12.011
6274	CB	418	TMC3	C5	1	0.0862	12.011
6275	CB	418	TMC3	C6	1	-0.15	12.011
6276	C=O	418	TMC3	C	1	0.5438	12.011
6277	O=C	418	TMC3	O	1	-0.57	15.9994
6278	HCMM	418	TMC3	H	1	0.15	1.0079
6279	HCMM	418	TMC3	H1	1	0.15	1.0079
6280	HCMM	418	TMC3	H2	1	0.15	1.0079
6281	C=O	418	TMC3	C7	1	0.5438	12.011
6282	C=O	418	TMC3	C8	1	0.5438	12.011
6283	O=C	418	TMC3	O1	1	-0.57	15.9994
6284	O=C	418	TMC3	O2	1	-0.57	15.9994
6285	CB	419	MPD2	C	1	-0.15	12.011
6286	CB	419	MPD2	C1	1	0.117	12.011
6287	CB	419	MPD2	C2	1	-0.15	12.011
6288	CB	419	MPD2	C3	1	0.117	12.011
6289	CB	419	MPD2	C4	1	-0.15	12.011
6290	CB	419	MPD2	C5	1	-0.15	12.011
6291	HCMM	419	MPD2	H	1	0.15	1.0079
6292	HCMM	419	MPD2	H1	1	0.15	1.0079
6293	HCMM	419	MPD2	H2	1	0.15	1.0079
6294	HCMM	419	MPD2	H3	1	0.15	1.0079
6295	NC=O	419	MPD2	N	1	-0.547	14.0067
6296	HNCO	419	MPD2	H5	1	0.37	1.0079
6297	NC=O	419	MPD2	N1	1	-0.547	14.0067
6298	HNCO	419	MPD2	H7	1	0.37	1.0079
6299	CB	420	TMC3	C1	1	0.0862	12.011
6300	CB	420	TMC3	C2	1	-0.15	12.011
6301	CB	420	TMC3	C3	1	0.0862	12.011
6302	CB	420	TMC3	C4	1	-0.15	12.011
6303	CB	420	TMC3	C5	1	0.0862	12.011
6304	CB	420	TMC3	C6	1	-0.15	12.011
6305	C=O	420	TMC3	C	1	0.5438	12.011
6306	O=C	420	TMC3	O	1	-0.57	15.9994
6307	HCMM	420	TMC3	H	1	0.15	1.0079
6308	HCMM	420	TMC3	H1	1	0.15	1.0079
6309	HCMM	420	TMC3	H2	1	0.15	1.0079
6310	C=O	420	TMC3	C7	1	0.5438	12.011
6311	C=O	420	TMC3	C8	1	0.5438	12.011
6312	O=C	420	TMC3	O1	1	-0.57	15.9994
6313	O=C	420	TMC3	O2	1	-0.57	15.9994
6314	CB	421	TMC3	C1	1	0.0862	12.011
6315	CB	421	TMC3	C2	1	-0.15	12.011
6316	CB	421	TMC3	C3	1	0.0862	12.011
6317	CB	421	TMC3	C4	1	-0.15	12.011
6318	CB	421	TMC3	C5	1	0.0862	12.011
6319	CB	421	TMC3	C6	1	-0.15	12.011
6320	C=O	421	TMC3	C	1	0.5438	12.011
6321	O=C	421	TMC3	O	1	-0.57	15.9994
6322	HCMM	421	TMC3	H	1	0.15	1.0079
6323	HCMM	421	TMC3	H1	1	0.15	1.0079
6324	HCMM	421	TMC3	H2	1	0.15	1.0079
6325	C=O	421	TMC3	C7	1	0.5438	12.011
6326	C=O	421	TMC3	C8	1	0.5438	12.011
6327	O=C	421	TMC3	O1	1	-0.57	15.9994
6328	O=C	421	TMC3	O2	1	-0.57	15.9994
6329	CB	422	TMC3	C1	1	0.0862	12.011
6330	CB	422	TMC3	C2	1	-0.15	12.011
6331	CB	422	TMC3	C3	1	0.0862	12.011
6332	CB	422	TMC3	C4	1	-0.15	12.011
6333	CB	422	TMC3	C5	1	0.0862	12.011
6334	CB	422	TMC3	C6	1	-0.15	12.011
6335	C=O	422	TMC3	C	1	0.5438	12.011
6336	O=C	422	TMC3	O	1	-0.57	15.9994
6337	HCMM	422	TMC3	H	1	0.15	1.0079
6338	HCMM	422	TMC3	H1	1	0.15	1.0079
6339	HCMM	422	TMC3	H2	1	0.15	1.0079
6340	C=O	422	TMC3	C7	1	0.5438	12.011
6341	C=O	422	TMC3	C8	1	0.5438	12.011
6342	O=C	422	TMC3	O1	1	-0.57	15.9994
6343	O=C	422	TMC3	O2	1	-0.57	15.9994
6344	CB	423	MPD2	C	1	-0.15	12.011
6345	CB	423	MPD2	C1	1	0.117	12.011
6346	CB	423	MPD2	C2	1	-0.15	12.011
6347	CB	423	MPD2	C3	1	0.117	12.011
6348	CB	423	MPD2	C4	1	-0.15	12.011
6349	CB	423	MPD2	C5	1	-0.15	12.011
6350	HCMM	423	MPD2	H	1	0.15	1.0079
6351	HCMM	423	MPD2	H1	1	0.15	1.0079
6352	HCMM	423	MPD2	H2	1	0.15	1.0079
6353	HCMM	423	MPD2	H3	1	0.15	1.0079
6354	NC=O	423	MPD2	N	1	-0.547	14.0067
6355	HNCO	423	MPD2	H5	1	0.37	1.0079
6356	NC=O	423	MPD2	N1	1	-0.547	14.0067
6357	HNCO	423	MPD2	H7	1	0.37	1.0079
6358	CB	424	TMC3	C1	1	0.0862	12.011
6359	CB	424	TMC3	C2	1	-0.15	12.011
6360	CB	424	TMC3	C3	1	0.0862	12.011
6361	CB	424	TMC3	C4	1	-0.15	12.011
6362	CB	424	TMC3	C5	1	0.0862	12.011
6363	CB	424	TMC3	C6	1	-0.15	12.011
6364	C=O	424	TMC3	C	1	0.5438	12.011
6365	O=C	424	TMC3	O	1	-0.57	15.9994
6366	HCMM	424	TMC3	H	1	0.15	1.0079
6367	HCMM	424	TMC3	H1	1	0.15	1.0079
6368	HCMM	424	TMC3	H2	1	0.15	1.0079
6369	C=O	424	TMC3	C7	1	0.5438	12.011
6370	C=O	424	TMC3	C8	1	0.5438	12.011
6371	O=C	424	TMC3	O1	1	-0.57	15.9994
6372	O=C	424	TMC3	O2	1	-0.57	15.9994
6373	CB	425	MPD2	C	1	-0.15	12.011
6374	CB	425	MPD2	C1	1	0.117	12.011
6375	CB	425	MPD2	C2	1	-0.15	12.011
6376	CB	425	MPD2	C3	1	0.117	12.011
6377	CB	425	MPD2	C4	1	-0.15	12.011
6378	CB	425	MPD2	C5	1	-0.15	12.011
6379	HCMM	425	MPD2	H	1	0.15	1.0079
6380	HCMM	425	MPD2	H1	1	0.15	1.0079
6381	HCMM	425	MPD2	H2	1	0.15	1.0079
6382	HCMM	425	MPD2	H3	1	0.15	1.0079
6383	NC=O	425	MPD2	N	1	-0.547	14.0067
6384	HNCO	425	MPD2	H5	1	0.37	1.0079
6385	NC=O	425	MPD2	N1	1	-0.547	14.0067
6386	HNCO	425	MPD2	H7	1	0.37	1.0079
6387	CB	426	TMC3	C1	1	0.0862	12.011
6388	CB	426	TMC3	C2	1	-0.15	12.011
6389	CB	426	TMC3	C3	1	0.0862	12.011
6390	CB	426	TMC3	C4	1	-0.15	12.011
6391	CB	426	TMC3	C5	1	0.0862	12.011
6392	CB	426	TMC3	C6	1	-0.15	12.011
6393	C=O	426	TMC3	C	1	0.5438	12.011
6394	O=C	426	TMC3	O	1	-0.57	15.9994
6395	HCMM	426	TMC3	H	1	0.15	1.0079
6396	HCMM	426	TMC3	H1	1	0.15	1.0079
6397	HCMM	426	TMC3	H2	1	0.15	1.0079
6398	C=O	426	TMC3	C7	1	0.5438	12.011
6399	C=O	426	TMC3	C8	1	0.5438	12.011
6400	O=C	426	TMC3	O1	1	-0.57	15.9994
6401	O=C	426	TMC3	O2	1	-0.57	15.9994
6402	CB	427	MPD2	C	1	-0.15	12.011
6403	CB	427	MPD2	C1	1	0.117	12.011
6404	CB	427	MPD2	C2	1	-0.15	12.011
6405	CB	427	MPD2	C3	1	0.117	12.011
6406	CB	427	MPD2	C4	1	-0.15	12.011
6407	CB	427	MPD2	C5	1	-0.15	12.011
6408	HCMM	427	MPD2	H	1	0.15	1.0079
6409	HCMM	427	MPD2	H1	1	0.15	1.0079
6410	HCMM	427	MPD2	H2	1	0.15	1.0079
6411	HCMM	427	MPD2	H3	1	0.15	1.0079
6412	NC=O	427	MPD2	N	1	-0.547	14.0067
6413	HNCO	427	MPD2	H5	1	0.37	1.0079
6414	NC=O	427	MPD2	N1	1	-0.547	14.0067
6415	HNCO	427	MPD2	H7	1	0.37	1.0079
6416	CB	428	TMC3	C1	1	0.0862	12.011
6417	CB	428	TMC3	C2	1	-0.15	12.011
6418	CB	428	TMC3	C3	1	0.0862	12.011
6419	CB	428	TMC3	C4	1	-0.15	12.011
6420	CB	428	TMC3	C5	1	0.0862	12.011
6421	CB	428	TMC3	C6	1	-0.15	12.011
6422	C=O	428	TMC3	C	1	0.5438	12.011
6423	O=C	428	TMC3	O	1	-0.57	15.9994
6424	HCMM	428	TMC3	H	1	0.15	1.0079
6425	HCMM	428	TMC3	H1	1	0.15	1.0079
6426	HCMM	428	TMC3	H2	1	0.15	1.0079
6427	C=O	428	TMC3	C7	1	0.5438	12.011
6428	C=O	428	TMC3	C8	1	0.5438	12.011
6429	O=C	428	TMC3	O1	1	-0.57	15.9994
6430	O=C	428	TMC3	O2	1	-0.57	15.9994
6431	CB	429	MPD2	C	1	-0.15	12.011
6432	CB	429	MPD2	C1	1	0.117	12.011
6433	CB	429	MPD2	C2	1	-0.15	12.011
6434	CB	429	MPD2	C3	1	0.117	12.011
6435	CB	429	MPD2	C4	1	-0.15	12.011
6436	CB	429	MPD2	C5	1	-0.15	12.011
6437	HCMM	429	MPD2	H	1	0.15	1.0079
6438	HCMM	429	MPD2	H1	1	0.15	1.0079
6439	HCMM	429	MPD2	H2	1	0.15	1.0079
6440	HCMM	429	MPD2	H3	1	0.15	1.0079
6441	NC=O	429	MPD2	N	1	-0.547	14.0067
6442	HNCO	429	MPD2	H5	1	0.37	1.0079
6443	NC=O	429	MPD2	N1	1	-0.547	14.0067
6444	HNCO	429	MPD2	H7	1	0.37	1.0079
6445	CB	430	TMC3	C1	1	0.0862	12.011
6446	CB	430	TMC3	C2	1	-0.15	12.011
6447	CB	430	TMC3	C3	1	0.0862	12.011
6448	CB	430	TMC3	C4	1	-0.15	12.011
6449	CB	430	TMC3	C5	1	0.0862	12.011
6450	CB	430	TMC3	C6	1	-0.15	12.011
6451	C=O	430	TMC3	C	1	0.5438	12.011
6452	O=C	430	TMC3	O	1	-0.57	15.9994
6453	HCMM	430	TMC3	H	1	0.15	1.0079
6454	HCMM	430	TMC3	H1	1	0.15	1.0079
6455	HCMM	430	TMC3	H2	1	0.15	1.0079
6456	C=O	430	TMC3	C7	1	0.5438	12.011
6457	C=O	430	TMC3	C8	1	0.5438	12.011
6458	O=C	430	TMC3	O1	1	-0.57	15.9994
6459	O=C	430	TMC3	O2	1	-0.57	15.9994
6460	CB	431	MPD2	C	1	-0.15	12.011
6461	CB	431	MPD2	C1	1	0.117	12.011
6462	CB	431	MPD2	C2	1	-0.15	12.011
6463	CB	431	MPD2	C3	1	0.117	12.011
6464	CB	431	MPD2	C4	1	-0.15	12.011
6465	CB	431	MPD2	C5	1	-0.15	12.011
6466	HCMM	431	MPD2	H	1	0.15	1.0079
6467	HCMM	431	MPD2	H1	1	0.15	1.0079
6468	HCMM	431	MPD2	H2	1	0.15	1.0079
6469	HCMM	431	MPD2	H3	1	0.15	1.0079
6470	NC=O	431	MPD2	N	1	-0.547	14.0067
6471	HNCO	431	MPD2	H5	1	0.37	1.0079
6472	NC=O	431	MPD2	N1	1	-0.547	14.0067
6473	HNCO	431	MPD2	H7	1	0.37	1.0079
6474	CB	432	TMC3	C1	1	0.0862	12.011
6475	CB	432	TMC3	C2	1	-0.15	12.011
6476	CB	432	TMC3	C3	1	0.0862	12.011
6477	CB	432	TMC3	C4	1	-0.15	12.011
6478	CB	432	TMC3	C5	1	0.0862	12.011
6479	CB	432	TMC3	C6	1	-0.15	12.011
6480	C=O	432	TMC3	C	1	0.5438	12.011
6481	O=C	432	TMC3	O	1	-0.57	15.9994
6482	HCMM	432	TMC3	H	1	0.15	1.0079
6483	HCMM	432	TMC3	H1	1	0.15	1.0079
6484	HCMM	432	TMC3	H2	1	0.15	1.0079
6485	C=O	432	TMC3	C7	1	0.5438	12.011
6486	C=O	432	TMC3	C8	1	0.5438	12.011
6487	O=C	432	TMC3	O1	1	-0.57	15.9994
6488	O=C	432	TMC3	O2	1	-0.57	15.9994
6489	CB	433	MPD2	C	1	-0.15	12.011
6490	CB	433	MPD2	C1	1	0.117	12.011
6491	CB	433	MPD2	C2	1	-0.15	12.011
6492	CB	433	MPD2	C3	1	0.117	12.011
6493	CB	433	MPD2	C4	1	-0.15	12.011
6494	CB	433	MPD2	C5	1	-0.15	12.011
6495	HCMM	433	MPD2	H	1	0.15	1.0079
6496	HCMM	433	MPD2	H1	1	0.15	1.0079
6497	HCMM	433	MPD2	H2	1	0.15	1.0079
6498	HCMM	433	MPD2	H3	1	0.15	1.0079
6499	NC=O	433	MPD2	N	1	-0.547	14.0067
6500	HNCO	433	MPD2	H5	1	0.37	1.0079
6501	NC=O	433	MPD2	N1	1	-0.547	14.0067
6502	HNCO	433	MPD2	H7	1	0.37	1.0079
6503	CB	434	TMC3	C1	1	0.0862	12.011
6504	CB	434	TMC3	C2	1	-0.15	12.011
6505	CB	434	TMC3	C3	1	0.0862	12.011
6506	CB	434	TMC3	C4	1	-0.15	12.011
6507	CB	434	TMC3	C5	1	0.0862	12.011
6508	CB	434	TMC3	C6	1	-0.15	12.011
6509	C=O	434	TMC3	C	1	0.5438	12.011
6510	O=C	434	TMC3	O	1	-0.57	15.9994
6511	HCMM	434	TMC3	H	1	0.15	1.0079
6512	HCMM	434	TMC3	H1	1	0.15	1.0079
6513	HCMM	434	TMC3	H2	1	0.15	1.0079
6514	C=O	434	TMC3	C7	1	0.5438	12.011
6515	C=O	434	TMC3	C8	1	0.5438	12.011
6516	O=C	434	TMC3	O1	1	-0.57	15.9994
6517	O=C	434	TMC3	O2	1	-0.57	15.9994
6518	CB	435	MPD2	C	1	-0.15	12.011
6519	CB	435	MPD2	C1	1	0.117	12.011
6520	CB	435	MPD2	C2	1	-0.15	12.011
6521	CB	435	MPD2	C3	1	0.117	12.011
6522	CB	435	MPD2	C4	1	-0.15	12.011
6523	CB	435	MPD2	C5	1	-0.15	12.011
6524	HCMM	435	MPD2	H	1	0.15	1.0079
6525	HCMM	435	MPD2	H1	1	0.15	1.0079
6526	HCMM	435	MPD2	H2	1	0.15	1.0079
6527	HCMM	435	MPD2	H3	1	0.15	1.0079
6528	NC=O	435	MPD2	N	1	-0.547	14.0067
6529	HNCO	435	MPD2	H5	1	0.37	1.0079
6530	NC=O	435	MPD2	N1	1	-0.547	14.0067
6531	HNCO	435	MPD2	H7	1	0.37	1.0079
6532	CB	436	TMC3	C1	1	0.0862	12.011
6533	CB	436	TMC3	C2	1	-0.15	12.011
6534	CB	436	TMC3	C3	1	0.0862	12.011
6535	CB	436	TMC3	C4	1	-0.15	12.011
6536	CB	436	TMC3	C5	1	0.0862	12.011
6537	CB	436	TMC3	C6	1	-0.15	12.011
6538	C=O	436	TMC3	C	1	0.5438	12.011
6539	O=C	436	TMC3	O	1	-0.57	15.9994
6540	HCMM	436	TMC3	H	1	0.15	1.0079
6541	HCMM	436	TMC3	H1	1	0.15	1.0079
6542	HCMM	436	TMC3	H2	1	0.15	1.0079
6543	C=O	436	TMC3	C7	1	0.5438	12.011
6544	C=O	436	TMC3	C8	1	0.5438	12.011
6545	O=C	436	TMC3	O1	1	-0.57	15.9994
6546	O=C	436	TMC3	O2	1	-0.57	15.9994
6547	CB	437	TMC3	C1	1	0.0862	12.011
6548	CB	437	TMC3	C2	1	-0.15	12.011
6549	CB	437	TMC3	C3	1	0.0862	12.011
6550	CB	437	TMC3	C4	1	-0.15	12.011
6551	CB	437	TMC3	C5	1	0.0862	12.011
6552	CB	437	TMC3	C6	1	-0.15	12.011
6553	C=O	437	TMC3	C	1	0.5438	12.011
6554	O=C	437	TMC3	O	1	-0.57	15.9994
6555	HCMM	437	TMC3	H	1	0.15	1.0079
6556	HCMM	437	TMC3	H1	1	0.15	1.0079
6557	HCMM	437	TMC3	H2	1	0.15	1.0079
6558	C=O	437	TMC3	C7	1	0.5438	12.011
6559	C=O	437	TMC3	C8	1	0.5438	12.011
6560	O=C	437	TMC3	O1	1	-0.57	15.9994
6561	O=C	437	TMC3	O2	1	-0.57	15.9994
6562	CB	438	MPD2	C	1	-0.15	12.011
6563	CB	438	MPD2	C1	1	0.117	12.011
6564	CB	438	MPD2	C2	1	-0.15	12.011
6565	CB	438	MPD2	C3	1	0.117	12.011
6566	CB	438	MPD2	C4	1	-0.15	12.011
6567	CB	438	MPD2	C5	1	-0.15	12.011
6568	HCMM	438	MPD2	H	1	0.15	1.0079
6569	HCMM	438	MPD2	H1	1	0.15	1.0079
6570	HCMM	438	MPD2	H2	1	0.15	1.0079
6571	HCMM	438	MPD2	H3	1	0.15	1.0079
6572	NC=O	438	MPD2	N	1	-0.547	14.0067
6573	HNCO	438	MPD2	H5	1	0.37	1.0079
6574	NC=O	438	MPD2	N1	1	-0.547	14.0067
6575	HNCO	438	MPD2	H7	1	0.37	1.0079
6576	CB	439	TMC3	C1	1	0.0862	12.011
6577	CB	439	TMC3	C2	1	-0.15	12.011
6578	CB	439	TMC3	C3	1	0.0862	12.011
6579	CB	439	TMC3	C4	1	-0.15	12.011
6580	CB	439	TMC3	C5	1	0.0862	12.011
6581	CB	439	TMC3	C6	1	-0.15	12.011
6582	C=O	439	TMC3	C	1	0.5438	12.011
6583	O=C	439	TMC3	O	1	-0.57	15.9994
6584	HCMM	439	TMC3	H	1	0.15	1.0079
6585	HCMM	439	TMC3	H1	1	0.15	1.0079
6586	HCMM	439	TMC3	H2	1	0.15	1.0079
6587	C=O	439	TMC3	C7	1	0.5438	12.011
6588	C=O	439	TMC3	C8	1	0.5438	12.011
6589	O=C	439	TMC3	O1	1	-0.57	15.9994
6590	O=C	439	TMC3	O2	1	-0.57	15.9994
6591	CB	440	MPD2	C	1	-0.15	12.011
6592	CB	440	MPD2	C1	1	0.117	12.011
6593	CB	440	MPD2	C2	1	-0.15	12.011
6594	CB	440	MPD2	C3	1	0.117	12.011
6595	CB	440	MPD2	C4	1	-0.15	12.011
6596	CB	440	MPD2	C5	1	-0.15	12.011
6597	HCMM	440	MPD2	H	1	0.15	1.0079
6598	HCMM	440	MPD2	H1	1	0.15	1.0079
6599	HCMM	440	MPD2	H2	1	0.15	1.0079
6600	HCMM	440	MPD2	H3	1	0.15	1.0079
6601	NC=O	440	MPD2	N	1	-0.547	14.0067
6602	HNCO	440	MPD2	H5	1	0.37	1.0079
6603	NC=O	440	MPD2	N1	1	-0.547	14.0067
6604	HNCO	440	MPD2	H7	1	0.37	1.0079
6605	CB	441	TMC3	C1	1	0.0862	12.011
6606	CB	441	TMC3	C2	1	-0.15	12.011
6607	CB	441	TMC3	C3	1	0.0862	12.011
6608	CB	441	TMC3	C4	1	-0.15	12.011
6609	CB	441	TMC3	C5	1	0.0862	12.011
6610	CB	441	TMC3	C6	1	-0.15	12.011
6611	C=O	441	TMC3	C	1	0.5438	12.011
6612	O=C	441	TMC3	O	1	-0.57	15.9994
6613	HCMM	441	TMC3	H	1	0.15	1.0079
6614	HCMM	441	TMC3	H1	1	0.15	1.0079
6615	HCMM	441	TMC3	H2	1	0.15	1.0079
6616	C=O	441	TMC3	C7	1	0.5438	12.011
6617	C=O	441	TMC3	C8	1	0.5438	12.011
6618	O=C	441	TMC3	O1	1	-0.57	15.9994
6619	O=C	441	TMC3	O2	1	-0.57	15.9994
6620	CB	442	MPD2	C	1	-0.15	12.011
6621	CB	442	MPD2	C1	1	0.117	12.011
6622	CB	442	MPD2	C2	1	-0.15	12.011
6623	CB	442	MPD2	C3	1	0.117	12.011
6624	CB	442	MPD2	C4	1	-0.15	12.011
6625	CB	442	MPD2	C5	1	-0.15	12.011
6626	HCMM	442	MPD2	H	1	0.15	1.0079
6627	HCMM	442	MPD2	H1	1	0.15	1.0079
6628	HCMM	442	MPD2	H2	1	0.15	1.0079
6629	HCMM	442	MPD2	H3	1	0.15	1.0079
6630	NC=O	442	MPD2	N	1	-0.547	14.0067
6631	HNCO	442	MPD2	H5	1	0.37	1.0079
6632	NC=O	442	MPD2	N1	1	-0.547	14.0067
6633	HNCO	442	MPD2	H7	1	0.37	1.0079
6634	CB	443	TMC3	C1	1	0.0862	12.011
6635	CB	443	TMC3	C2	1	-0.15	12.011
6636	CB	443	TMC3	C3	1	0.0862	12.011
6637	CB	443	TMC3	C4	1	-0.15	12.011
6638	CB	443	TMC3	C5	1	0.0862	12.011
6639	CB	443	TMC3	C6	1	-0.15	12.011
6640	C=O	443	TMC3	C	1	0.5438	12.011
6641	O=C	443	TMC3	O	1	-0.57	15.9994
6642	HCMM	443	TMC3	H	1	0.15	1.0079
6643	HCMM	443	TMC3	H1	1	0.15	1.0079
6644	HCMM	443	TMC3	H2	1	0.15	1.0079
6645	C=O	443	TMC3	C7	1	0.5438	12.011
6646	C=O	443	TMC3	C8	1	0.5438	12.011
6647	O=C	443	TMC3	O1	1	-0.57	15.9994
6648	O=C	443	TMC3	O2	1	-0.57	15.9994
6649	CB	444	MPD2	C	1	-0.15	12.011
6650	CB	444	MPD2	C1	1	0.117	12.011
6651	CB	444	MPD2	C2	1	-0.15	12.011
6652	CB	444	MPD2	C3	1	0.117	12.011
6653	CB	444	MPD2	C4	1	-0.15	12.011
6654	CB	444	MPD2	C5	1	-0.15	12.011
6655	HCMM	444	MPD2	H	1	0.15	1.0079
6656	HCMM	444	MPD2	H1	1	0.15	1.0079
6657	HCMM	444	MPD2	H2	1	0.15	1.0079
6658	HCMM	444	MPD2	H3	1	0.15	1.0079
6659	NC=O	444	MPD2	N	1	-0.547	14.0067
6660	HNCO	444	MPD2	H5	1	0.37	1.0079
6661	NC=O	444	MPD2	N1	1	-0.547	14.0067
6662	HNCO	444	MPD2	H7	1	0.37	1.0079
6663	CB	445	TMC3	C1	1	0.0862	12.011
6664	CB	445	TMC3	C2	1	-0.15	12.011
6665	CB	445	TMC3	C3	1	0.0862	12.011
6666	CB	445	TMC3	C4	1	-0.15	12.011
6667	CB	445	TMC3	C5	1	0.0862	12.011
6668	CB	445	TMC3	C6	1	-0.15	12.011
6669	C=O	445	TMC3	C	1	0.5438	12.011
6670	O=C	445	TMC3	O	1	-0.57	15.9994
6671	HCMM	445	TMC3	H	1	0.15	1.0079
6672	HCMM	445	TMC3	H1	1	0.15	1.0079
6673	HCMM	445	TMC3	H2	1	0.15	1.0079
6674	C=O	445	TMC3	C7	1	0.5438	12.011
6675	C=O	445	TMC3	C8	1	0.5438	12.011
6676	O=C	445	TMC3	O1	1	-0.57	15.9994
6677	O=C	445	TMC3	O2	1	-0.57	15.9994
6678	CB	446	MPD2	C	1	-0.15	12.011
6679	CB	446	MPD2	C1	1	0.117	12.011
6680	CB	446	MPD2	C2	1	-0.15	12.011
6681	CB	446	MPD2	C3	1	0.117	12.011
6682	CB	446	MPD2	C4	1	-0.15	12.011
6683	CB	446	MPD2	C5	1	-0.15	12.011
6684	HCMM	446	MPD2	H	1	0.15	1.0079
6685	HCMM	446	MPD2	H1	1	0.15	1.0079
6686	HCMM	446	MPD2	H2	1	0.15	1.0079
6687	HCMM	446	MPD2	H3	1	0.15	1.0079
6688	NC=O	446	MPD2	N	1	-0.547	14.0067
6689	HNCO	446	MPD2	H5	1	0.37	1.0079
6690	NC=O	446	MPD2	N1	1	-0.547	14.0067
6691	HNCO	446	MPD2	H7	1	0.37	1.0079
6692	CB	447	TMC3	C1	1	0.0862	12.011
6693	CB	447	TMC3	C2	1	-0.15	12.011
6694	CB	447	TMC3	C3	1	0.0862	12.011
6695	CB	447	TMC3	C4	1	-0.15	12.011
6696	CB	447	TMC3	C5	1	0.0862	12.011
6697	CB	447	TMC3	C6	1	-0.15	12.011
6698	C=O	447	TMC3	C	1	0.5438	12.011
6699	O=C	447	TMC3	O	1	-0.57	15.9994
6700	HCMM	447	TMC3	H	1	0.15	1.0079
6701	HCMM	447	TMC3	H1	1	0.15	1.0079
6702	HCMM	447	TMC3	H2	1	0.15	1.0079
6703	C=O	447	TMC3	C7	1	0.5438	12.011
6704	C=O	447	TMC3	C8	1	0.5438	12.011
6705	O=C	447	TMC3	O1	1	-0.57	15.9994
6706	O=C	447	TMC3	O2	1	-0.57	15.9994
6707	CB	448	TMC3	C1	1	0.0862	12.011
6708	CB	448	TMC3	C2	1	-0.15	12.011
6709	CB	448	TMC3	C3	1	0.0862	12.011
6710	CB	448	TMC3	C4	1	-0.15	12.011
6711	CB	448	TMC3	C5	1	0.0862	12.011
6712	CB	448	TMC3	C6	1	-0.15	12.011
6713	C=O	448	TMC3	C	1	0.5438	12.011
6714	O=C	448	TMC3	O	1	-0.57	15.9994
6715	HCMM	448	TMC3	H	1	0.15	1.0079
6716	HCMM	448	TMC3	H1	1	0.15	1.0079
6717	HCMM	448	TMC3	H2	1	0.15	1.0079
6718	C=O	448	TMC3	C7	1	0.5438	12.011
6719	C=O	448	TMC3	C8	1	0.5438	12.011
6720	O=C	448	TMC3	O1	1	-0.57	15.9994
6721	O=C	448	TMC3	O2	1	-0.57	15.9994
6722	CB	449	MPD2	C	1	-0.15	12.011
6723	CB	449	MPD2	C1	1	0.117	12.011
6724	CB	449	MPD2	C2	1	-0.15	12.011
6725	CB	449	MPD2	C3	1	0.117	12.011
6726	CB	449	MPD2	C4	1	-0.15	12.011
6727	CB	449	MPD2	C5	1	-0.15	12.011
6728	HCMM	449	MPD2	H	1	0.15	1.0079
6729	HCMM	449	MPD2	H1	1	0.15	1.0079
6730	HCMM	449	MPD2	H2	1	0.15	1.0079
6731	HCMM	449	MPD2	H3	1	0.15	1.0079
6732	NC=O	449	MPD2	N	1	-0.547	14.0067
6733	HNCO	449	MPD2	H5	1	0.37	1.0079
6734	NC=O	449	MPD2	N1	1	-0.547	14.0067
6735	HNCO	449	MPD2	H7	1	0.37	1.0079
6736	CB	450	TMC3	C1	1	0.0862	12.011
6737	CB	450	TMC3	C2	1	-0.15	12.011
6738	CB	450	TMC3	C3	1	0.0862	12.011
6739	CB	450	TMC3	C4	1	-0.15	12.011
6740	CB	450	TMC3	C5	1	0.0862	12.011
6741	CB	450	TMC3	C6	1	-0.15	12.011
6742	C=O	450	TMC3	C	1	0.5438	12.011
6743	O=C	450	TMC3	O	1	-0.57	15.9994
6744	HCMM	450	TMC3	H	1	0.15	1.0079
6745	HCMM	450	TMC3	H1	1	0.15	1.0079
6746	HCMM	450	TMC3	H2	1	0.15	1.0079
6747	C=O	450	TMC3	C7	1	0.5438	12.011
6748	C=O	450	TMC3	C8	1	0.5438	12.011
6749	O=C	450	TMC3	O1	1	-0.57	15.9994
6750	O=C	450	TMC3	O2	1	-0.57	15.9994
6751	CB	451	MPD2	C	1	-0.15	12.011
6752	CB	451	MPD2	C1	1	0.117	12.011
6753	CB	451	MPD2	C2	1	-0.15	12.011
6754	CB	451	MPD2	C3	1	0.117	12.011
6755	CB	451	MPD2	C4	1	-0.15	12.011
6756	CB	451	MPD2	C5	1	-0.15	12.011
6757	HCMM	451	MPD2	H	1	0.15	1.0079
6758	HCMM	451	MPD2	H1	1	0.15	1.0079
6759	HCMM	451	MPD2	H2	1	0.15	1.0079
6760	HCMM	451	MPD2	H3	1	0.15	1.0079
6761	NC=O	451	MPD2	N	1	-0.547	14.0067
6762	HNCO	451	MPD2	H5	1	0.37	1.0079
6763	NC=O	451	MPD2	N1	1	-0.547	14.0067
6764	HNCO	451	MPD2	H7	1	0.37	1.0079
6765	CB	452	TMC3	C1	1	0.0862	12.011
6766	CB	452	TMC3	C2	1	-0.15	12.011
6767	CB	452	TMC3	C3	1	0.0862	12.011
6768	CB	452	TMC3	C4	1	-0.15	12.011
6769	CB	452	TMC3	C5	1	0.0862	12.011
6770	CB	452	TMC3	C6	1	-0.15	12.011
6771	C=O	452	TMC3	C	1	0.5438	12.011
6772	O=C	452	TMC3	O	1	-0.57	15.9994
6773	HCMM	452	TMC3	H	1	0.15	1.0079
6774	HCMM	452	TMC3	H1	1	0.15	1.0079
6775	HCMM	452	TMC3	H2	1	0.15	1.0079
6776	C=O	452	TMC3	C7	1	0.5438	12.011
6777	C=O	452	TMC3	C8	1	0.5438	12.011
6778	O=C	452	TMC3	O1	1	-0.57	15.9994
6779	O=C	452	TMC3	O2	1	-0.57	15.9994
6780	CB	453	TMC3	C1	1	0.0862	12.011
6781	CB	453	TMC3	C2	1	-0.15	12.011
6782	CB	453	TMC3	C3	1	0.0862	12.011
6783	CB	453	TMC3	C4	1	-0.15	12.011
6784	CB	453	TMC3	C5	1	0.0862	12.011
6785	CB	453	TMC3	C6	1	-0.15	12.011
6786	C=O	453	TMC3	C	1	0.5438	12.011
6787	O=C	453	TMC3	O	1	-0.57	15.9994
6788	HCMM	453	TMC3	H	1	0.15	1.0079
6789	HCMM	453	TMC3	H1	1	0.15	1.0079
6790	HCMM	453	TMC3	H2	1	0.15	1.0079
6791	C=O	453	TMC3	C7	1	0.5438	12.011
6792	C=O	453	TMC3	C8	1	0.5438	12.011
6793	O=C	453	TMC3	O1	1	-0.57	15.9994
6794	O=C	453	TMC3	O2	1	-0.57	15.9994
6795	CB	454	MPD2	C	1	-0.15	12.011
6796	CB	454	MPD2	C1	1	0.117	12.011
6797	CB	454	MPD2	C2	1	-0.15	12.011
6798	CB	454	MPD2	C3	1	0.117	12.011
6799	CB	454	MPD2	C4	1	-0.15	12.011
6800	CB	454	MPD2	C5	1	-0.15	12.011
6801	HCMM	454	MPD2	H	1	0.15	1.0079
6802	HCMM	454	MPD2	H1	1	0.15	1.0079
6803	HCMM	454	MPD2	H2	1	0.15	1.0079
6804	HCMM	454	MPD2	H3	1	0.15	1.0079
6805	NC=O	454	MPD2	N	1	-0.547	14.0067
6806	HNCO	454	MPD2	H5	1	0.37	1.0079
6807	NC=O	454	MPD2	N1	1	-0.547	14.0067
6808	HNCO	454	MPD2	H7	1	0.37	1.0079
6809	CB	455	TMC3	C1	1	0.0862	12.011
6810	CB	455	TMC3	C2	1	-0.15	12.011
6811	CB	455	TMC3	C3	1	0.0862	12.011
6812	CB	455	TMC3	C4	1	-0.15	12.011
6813	CB	455	TMC3	C5	1	0.0862	12.011
6814	CB	455	TMC3	C6	1	-0.15	12.011
6815	C=O	455	TMC3	C	1	0.5438	12.011
6816	O=C	455	TMC3	O	1	-0.57	15.9994
6817	HCMM	455	TMC3	H	1	0.15	1.0079
6818	HCMM	455	TMC3	H1	1	0.15	1.0079
6819	HCMM	455	TMC3	H2	1	0.15	1.0079
6820	C=O	455	TMC3	C7	1	0.5438	12.011
6821	C=O	455	TMC3	C8	1	0.5438	12.011
6822	O=C	455	TMC3	O1	1	-0.57	15.9994
6823	O=C	455	TMC3	O2	1	-0.57	15.9994
6824	CB	456	MPD2	C	1	-0.15	12.011
6825	CB	456	MPD2	C1	1	0.117	12.011
6826	CB	456	MPD2	C2	1	-0.15	12.011
6827	CB	456	MPD2	C3	1	0.117	12.011
6828	CB	456	MPD2	C4	1	-0.15	12.011
6829	CB	456	MPD2	C5	1	-0.15	12.011
6830	HCMM	456	MPD2	H	1	0.15	1.0079
6831	HCMM	456	MPD2	H1	1	0.15	1.0079
6832	HCMM	456	MPD2	H2	1	0.15	1.0079
6833	HCMM	456	MPD2	H3	1	0.15	1.0079
6834	NC=O	456	MPD2	N	1	-0.547	14.0067
6835	HNCO	456	MPD2	H5	1	0.37	1.0079
6836	NC=O	456	MPD2	N1	1	-0.547	14.0067
6837	HNCO	456	MPD2	H7	1	0.37	1.0079
6838	CB	457	TMC3	C1	1	0.0862	12.011
6839	CB	457	TMC3	C2	1	-0.15	12.011
6840	CB	457	TMC3	C3	1	0.0862	12.011
6841	CB	457	TMC3	C4	1	-0.15	12.011
6842	CB	457	TMC3	C5	1	0.0862	12.011
6843	CB	457	TMC3	C6	1	-0.15	12.011
6844	C=O	457	TMC3	C	1	0.5438	12.011
6845	O=C	457	TMC3	O	1	-0.57	15.9994
6846	HCMM	457	TMC3	H	1	0.15	1.0079
6847	HCMM	457	TMC3	H1	1	0.15	1.0079
6848	HCMM	457	TMC3	H2	1	0.15	1.0079
6849	C=O	457	TMC3	C7	1	0.5438	12.011
6850	C=O	457	TMC3	C8	1	0.5438	12.011
6851	O=C	457	TMC3	O1	1	-0.57	15.9994
6852	O=C	457	TMC3	O2	1	-0.57	15.9994
6853	CB	458	MPD2	C	1	-0.15	12.011
6854	CB	458	MPD2	C1	1	0.117	12.011
6855	CB	458	MPD2	C2	1	-0.15	12.011
6856	CB	458	MPD2	C3	1	0.117	12.011
6857	CB	458	MPD2	C4	1	-0.15	12.011
6858	CB	458	MPD2	C5	1	-0.15	12.011
6859	HCMM	458	MPD2	H	1	0.15	1.0079
6860	HCMM	458	MPD2	H1	1	0.15	1.0079
6861	HCMM	458	MPD2	H2	1	0.15	1.0079
6862	HCMM	458	MPD2	H3	1	0.15	1.0079
6863	NC=O	458	MPD2	N	1	-0.547	14.0067
6864	HNCO	458	MPD2	H5	1	0.37	1.0079
6865	NC=O	458	MPD2	N1	1	-0.547	14.0067
6866	HNCO	458	MPD2	H7	1	0.37	1.0079
6867	CB	459	TMC3	C1	1	0.0862	12.011
6868	CB	459	TMC3	C2	1	-0.15	12.011
6869	CB	459	TMC3	C3	1	0.0862	12.011
6870	CB	459	TMC3	C4	1	-0.15	12.011
6871	CB	459	TMC3	C5	1	0.0862	12.011
6872	CB	459	TMC3	C6	1	-0.15	12.011
6873	C=O	459	TMC3	C	1	0.5438	12.011
6874	O=C	459	TMC3	O	1	-0.57	15.9994
6875	HCMM	459	TMC3	H	1	0.15	1.0079
6876	HCMM	459	TMC3	H1	1	0.15	1.0079
6877	HCMM	459	TMC3	H2	1	0.15	1.0079
6878	C=O	459	TMC3	C7	1	0.5438	12.011
6879	C=O	459	TMC3	C8	1	0.5438	12.011
6880	O=C	459	TMC3	O1	1	-0.57	15.9994
6881	O=C	459	TMC3	O2	1	-0.57	15.9994
6882	CB	460	MPD2	C	1	-0.15	12.011
6883	CB	460	MPD2	C1	1	0.117	12.011
6884	CB	460	MPD2	C2	1	-0.15	12.011
6885	CB	460	MPD2	C3	1	0.117	12.011
6886	CB	460	MPD2	C4	1	-0.15	12.011
6887	CB	460	MPD2	C5	1	-0.15	12.011
6888	HCMM	460	MPD2	H	1	0.15	1.0079
6889	HCMM	460	MPD2	H1	1	0.15	1.0079
6890	HCMM	460	MPD2	H2	1	0.15	1.0079
6891	HCMM	460	MPD2	H3	1	0.15	1.0079
6892	NC=O	460	MPD2	N	1	-0.547	14.0067
6893	HNCO	460	MPD2	H5	1	0.37	1.0079
6894	NC=O	460	MPD2	N1	1	-0.547	14.0067
6895	HNCO	460	MPD2	H7	1	0.37	1.0079
6896	CB	461	TMC3	C1	1	0.0862	12.011
6897	CB	461	TMC3	C2	1	-0.15	12.011
6898	CB	461	TMC3	C3	1	0.0862	12.011
6899	CB	461	TMC3	C4	1	-0.15	12.011
6900	CB	461	TMC3	C5	1	0.0862	12.011
6901	CB	461	TMC3	C6	1	-0.15	12.011
6902	C=O	461	TMC3	C	1	0.5438	12.011
6903	O=C	461	TMC3	O	1	-0.57	15.9994
6904	HCMM	461	TMC3	H	1	0.15	1.0079
6905	HCMM	461	TMC3	H1	1	0.15	1.0079
6906	HCMM	461	TMC3	H2	1	0.15	1.0079
6907	C=O	461	TMC3	C7	1	0.5438	12.011
6908	C=O	461	TMC3	C8	1	0.5438	12.011
6909	O=C	461	TMC3	O1	1	-0.57	15.9994
6910	O=C	461	TMC3	O2	1	-0.57	15.9994
6911	CB	462	TMC3	C1	1	0.0862	12.011
6912	CB	462	TMC3	C2	1	-0.15	12.011
6913	CB	462	TMC3	C3	1	0.0862	12.011
6914	CB	462	TMC3	C4	1	-0.15	12.011
6915	CB	462	TMC3	C5	1	0.0862	12.011
6916	CB	462	TMC3	C6	1	-0.15	12.011
6917	C=O	462	TMC3	C	1	0.5438	12.011
6918	O=C	462	TMC3	O	1	-0.57	15.9994
6919	HCMM	462	TMC3	H	1	0.15	1.0079
6920	HCMM	462	TMC3	H1	1	0.15	1.0079
6921	HCMM	462	TMC3	H2	1	0.15	1.0079
6922	C=O	462	TMC3	C7	1	0.5438	12.011
6923	C=O	462	TMC3	C8	1	0.5438	12.011
6924	O=C	462	TMC3	O1	1	-0.57	15.9994
6925	O=C	462	TMC3	O2	1	-0.57	15.9994
6926	CB	463	MPD2	C	1	-0.15	12.011
6927	CB	463	MPD2	C1	1	0.117	12.011
6928	CB	463	MPD2	C2	1	-0.15	12.011
6929	CB	463	MPD2	C3	1	0.117	12.011
6930	CB	463	MPD2	C4	1	-0.15	12.011
6931	CB	463	MPD2	C5	1	-0.15	12.011
6932	HCMM	463	MPD2	H	1	0.15	1.0079
6933	HCMM	463	MPD2	H1	1	0.15	1.0079
6934	HCMM	463	MPD2	H2	1	0.15	1.0079
6935	HCMM	463	MPD2	H3	1	0.15	1.0079
6936	NC=O	463	MPD2	N	1	-0.547	14.0067
6937	HNCO	463	MPD2	H5	1	0.37	1.0079
6938	NC=O	463	MPD2	N1	1	-0.547	14.0067
6939	HNCO	463	MPD2	H7	1	0.37	1.0079
6940	CB	464	TMC3	C1	1	0.0862	12.011
6941	CB	464	TMC3	C2	1	-0.15	12.011
6942	CB	464	TMC3	C3	1	0.0862	12.011
6943	CB	464	TMC3	C4	1	-0.15	12.011
6944	CB	464	TMC3	C5	1	0.0862	12.011
6945	CB	464	TMC3	C6	1	-0.15	12.011
6946	C=O	464	TMC3	C	1	0.5438	12.011
6947	O=C	464	TMC3	O	1	-0.57	15.9994
6948	HCMM	464	TMC3	H	1	0.15	1.0079
6949	HCMM	464	TMC3	H1	1	0.15	1.0079
6950	HCMM	464	TMC3	H2	1	0.15	1.0079
6951	C=O	464	TMC3	C7	1	0.5438	12.011
6952	C=O	464	TMC3	C8	1	0.5438	12.011
6953	O=C	464	TMC3	O1	1	-0.57	15.9994
6954	O=C	464	TMC3	O2	1	-0.57	15.9994
6955	CB	465	MPD2	C	1	-0.15	12.011
6956	CB	465	MPD2	C1	1	0.117	12.011
6957	CB	465	MPD2	C2	1	-0.15	12.011
6958	CB	465	MPD2	C3	1	0.117	12.011
6959	CB	465	MPD2	C4	1	-0.15	12.011
6960	CB	465	MPD2	C5	1	-0.15	12.011
6961	HCMM	465	MPD2	H	1	0.15	1.0079
6962	HCMM	465	MPD2	H1	1	0.15	1.0079
6963	HCMM	465	MPD2	H2	1	0.15	1.0079
6964	HCMM	465	MPD2	H3	1	0.15	1.0079
6965	NC=O	465	MPD2	N	1	-0.547	14.0067
6966	HNCO	465	MPD2	H5	1	0.37	1.0079
6967	NC=O	465	MPD2	N1	1	-0.547	14.0067
6968	HNCO	465	MPD2	H7	1	0.37	1.0079
6969	CB	466	TMC3	C1	1	0.0862	12.011
6970	CB	466	TMC3	C2	1	-0.15	12.011
6971	CB	466	TMC3	C3	1	0.0862	12.011
6972	CB	466	TMC3	C4	1	-0.15	12.011
6973	CB	466	TMC3	C5	1	0.0862	12.011
6974	CB	466	TMC3	C6	1	-0.15	12.011
6975	C=O	466	TMC3	C	1	0.5438	12.011
6976	O=C	466	TMC3	O	1	-0.57	15.9994
6977	HCMM	466	TMC3	H	1	0.15	1.0079
6978	HCMM	466	TMC3	H1	1	0.15	1.0079
6979	HCMM	466	TMC3	H2	1	0.15	1.0079
6980	C=O	466	TMC3	C7	1	0.5438	12.011
6981	C=O	466	TMC3	C8	1	0.5438	12.011
6982	O=C	466	TMC3	O1	1	-0.57	15.9994
6983	O=C	466	TMC3	O2	1	-0.57	15.9994
6984	CB	467	TMC3	C1	1	0.0862	12.011
6985	CB	467	TMC3	C2	1	-0.15	12.011
6986	CB	467	TMC3	C3	1	0.0862	12.011
6987	CB	467	TMC3	C4	1	-0.15	12.011
6988	CB	467	TMC3	C5	1	0.0862	12.011
6989	CB	467	TMC3	C6	1	-0.15	12.011
6990	C=O	467	TMC3	C	1	0.5438	12.011
6991	O=C	467	TMC3	O	1	-0.57	15.9994
6992	HCMM	467	TMC3	H	1	0.15	1.0079
6993	HCMM	467	TMC3	H1	1	0.15	1.0079
6994	HCMM	467	TMC3	H2	1	0.15	1.0079
6995	C=O	467	TMC3	C7	1	0.5438	12.011
6996	C=O	467	TMC3	C8	1	0.5438	12.011
6997	O=C	467	TMC3	O1	1	-0.57	15.9994
6998	O=C	467	TMC3	O2	1	-0.57	15.9994
6999	CB	468	MPD2	C	1	-0.15	12.011
7000	CB	468	MPD2	C1	1	0.117	12.011
7001	CB	468	MPD2	C2	1	-0.15	12.011
7002	CB	468	MPD2	C3	1	0.117	12.011
7003	CB	468	MPD2	C4	1	-0.15	12.011
7004	CB	468	MPD2	C5	1	-0.15	12.011
7005	HCMM	468	MPD2	H	1	0.15	1.0079
7006	HCMM	468	MPD2	H1	1	0.15	1.0079
7007	HCMM	468	MPD2	H2	1	0.15	1.0079
7008	HCMM	468	MPD2	H3	1	0.15	1.0079
7009	NC=O	468	MPD2	N	1	-0.547	14.0067
7010	HNCO	468	MPD2	H5	1	0.37	1.0079
7011	NC=O	468	MPD2	N1	1	-0.547	14.0067
7012	HNCO	468	MPD2	H7	1	0.37	1.0079
7013	CB	469	TMC3	C1	1	0.0862	12.011
7014	CB	469	TMC3	C2	1	-0.15	12.011
7015	CB	469	TMC3	C3	1	0.0862	12.011
7016	CB	469	TMC3	C4	1	-0.15	12.011
7017	CB	469	TMC3	C5	1	0.0862	12.011
7018	CB	469	TMC3	C6	1	-0.15	12.011
7019	C=O	469	TMC3	C	1	0.5438	12.011
7020	O=C	469	TMC3	O	1	-0.57	15.9994
7021	HCMM	469	TMC3	H	1	0.15	1.0079
7022	HCMM	469	TMC3	H1	1	0.15	1.0079
7023	HCMM	469	TMC3	H2	1	0.15	1.0079
7024	C=O	469	TMC3	C7	1	0.5438	12.011
7025	C=O	469	TMC3	C8	1	0.5438	12.011
7026	O=C	469	TMC3	O1	1	-0.57	15.9994
7027	O=C	469	TMC3	O2	1	-0.57	15.9994
7028	CB	470	TMC3	C1	1	0.0862	12.011
7029	CB	470	TMC3	C2	1	-0.15	12.011
7030	CB	470	TMC3	C3	1	0.0862	12.011
7031	CB	470	TMC3	C4	1	-0.15	12.011
7032	CB	470	TMC3	C5	1	0.0862	12.011
7033	CB	470	TMC3	C6	1	-0.15	12.011
7034	C=O	470	TMC3	C	1	0.5438	12.011
7035	O=C	470	TMC3	O	1	-0.57	15.9994
7036	HCMM	470	TMC3	H	1	0.15	1.0079
7037	HCMM	470	TMC3	H1	1	0.15	1.0079
7038	HCMM	470	TMC3	H2	1	0.15	1.0079
7039	C=O	470	TMC3	C7	1	0.5438	12.011
7040	C=O	470	TMC3	C8	1	0.5438	12.011
7041	O=C	470	TMC3	O1	1	-0.57	15.9994
7042	O=C	470	TMC3	O2	1	-0.57	15.9994
7043	CB	471	MPD2	C	1	-0.15	12.011
7044	CB	471	MPD2	C1	1	0.117	12.011
7045	CB	471	MPD2	C2	1	-0.15	12.011
7046	CB	471	MPD2	C3	1	0.117	12.011
7047	CB	471	MPD2	C4	1	-0.15	12.011
7048	CB	471	MPD2	C5	1	-0.15	12.011
7049	HCMM	471	MPD2	H	1	0.15	1.0079
7050	HCMM	471	MPD2	H1	1	0.15	1.0079
7051	HCMM	471	MPD2	H2	1	0.15	1.0079
7052	HCMM	471	MPD2	H3	1	0.15	1.0079
7053	NC=O	471	MPD2	N	1	-0.547	14.0067
7054	HNCO	471	MPD2	H5	1	0.37	1.0079
7055	NC=O	471	MPD2	N1	1	-0.547	14.0067
7056	HNCO	471	MPD2	H7	1	0.37	1.0079
7057	CB	472	TMC3	C1	1	0.0862	12.011
7058	CB	472	TMC3	C2	1	-0.15	12.011
7059	CB	472	TMC3	C3	1	0.0862	12.011
7060	CB	472	TMC3	C4	1	-0.15	12.011
7061	CB	472	TMC3	C5	1	0.0862	12.011
7062	CB	472	TMC3	C6	1	-0.15	12.011
7063	C=O	472	TMC3	C	1	0.5438	12.011
7064	O=C	472	TMC3	O	1	-0.57	15.9994
7065	HCMM	472	TMC3	H	1	0.15	1.0079
7066	HCMM	472	TMC3	H1	1	0.15	1.0079
7067	HCMM	472	TMC3	H2	1	0.15	1.0079
7068	C=O	472	TMC3	C7	1	0.5438	12.011
7069	C=O	472	TMC3	C8	1	0.5438	12.011
7070	O=C	472	TMC3	O1	1	-0.57	15.9994
7071	O=C	472	TMC3	O2	1	-0.57	15.9994
7072	CB	473	MPD2	C	1	-0.15	12.011
7073	CB	473	MPD2	C1	1	0.117	12.011
7074	CB	473	MPD2	C2	1	-0.15	12.011
7075	CB	473	MPD2	C3	1	0.117	12.011
7076	CB	473	MPD2	C4	1	-0.15	12.011
7077	CB	473	MPD2	C5	1	-0.15	12.011
7078	HCMM	473	MPD2	H	1	0.15	1.0079
7079	HCMM	473	MPD2	H1	1	0.15	1.0079
7080	HCMM	473	MPD2	H2	1	0.15	1.0079
7081	HCMM	473	MPD2	H3	1	0.15	1.0079
7082	NC=O	473	MPD2	N	1	-0.547	14.0067
7083	HNCO	473	MPD2	H5	1	0.37	1.0079
7084	NC=O	473	MPD2	N1	1	-0.547	14.0067
7085	HNCO	473	MPD2	H7	1	0.37	1.0079
7086	CB	474	TMC3	C1	1	0.0862	12.011
7087	CB	474	TMC3	C2	1	-0.15	12.011
7088	CB	474	TMC3	C3	1	0.0862	12.011
7089	CB	474	TMC3	C4	1	-0.15	12.011
7090	CB	474	TMC3	C5	1	0.0862	12.011
7091	CB	474	TMC3	C6	1	-0.15	12.011
7092	C=O	474	TMC3	C	1	0.5438	12.011
7093	O=C	474	TMC3	O	1	-0.57	15.9994
7094	HCMM	474	TMC3	H	1	0.15	1.0079
7095	HCMM	474	TMC3	H1	1	0.15	1.0079
7096	HCMM	474	TMC3	H2	1	0.15	1.0079
7097	C=O	474	TMC3	C7	1	0.5438	12.011
7098	C=O	474	TMC3	C8	1	0.5438	12.011
7099	O=C	474	TMC3	O1	1	-0.57	15.9994
7100	O=C	474	TMC3	O2	1	-0.57	15.9994
7101	CB	475	MPD2	C	1	-0.15	12.011
7102	CB	475	MPD2	C1	1	0.117	12.011
7103	CB	475	MPD2	C2	1	-0.15	12.011
7104	CB	475	MPD2	C3	1	0.117	12.011
7105	CB	475	MPD2	C4	1	-0.15	12.011
7106	CB	475	MPD2	C5	1	-0.15	12.011
7107	HCMM	475	MPD2	H	1	0.15	1.0079
7108	HCMM	475	MPD2	H1	1	0.15	1.0079
7109	HCMM	475	MPD2	H2	1	0.15	1.0079
7110	HCMM	475	MPD2	H3	1	0.15	1.0079
7111	NC=O	475	MPD2	N	1	-0.547	14.0067
7112	HNCO	475	MPD2	H5	1	0.37	1.0079
7113	NC=O	475	MPD2	N1	1	-0.547	14.0067
7114	HNCO	475	MPD2	H7	1	0.37	1.0079
7115	CB	476	TMC3	C1	1	0.0862	12.011
7116	CB	476	TMC3	C2	1	-0.15	12.011
7117	CB	476	TMC3	C3	1	0.0862	12.011
7118	CB	476	TMC3	C4	1	-0.15	12.011
7119	CB	476	TMC3	C5	1	0.0862	12.011
7120	CB	476	TMC3	C6	1	-0.15	12.011
7121	C=O	476	TMC3	C	1	0.5438	12.011
7122	O=C	476	TMC3	O	1	-0.57	15.9994
7123	HCMM	476	TMC3	H	1	0.15	1.0079
7124	HCMM	476	TMC3	H1	1	0.15	1.0079
7125	HCMM	476	TMC3	H2	1	0.15	1.0079
7126	C=O	476	TMC3	C7	1	0.5438	12.011
7127	C=O	476	TMC3	C8	1	0.5438	12.011
7128	O=C	476	TMC3	O1	1	-0.57	15.9994
7129	O=C	476	TMC3	O2	1	-0.57	15.9994
7130	CB	477	MPD2	C	1	-0.15	12.011
7131	CB	477	MPD2	C1	1	0.117	12.011
7132	CB	477	MPD2	C2	1	-0.15	12.011
7133	CB	477	MPD2	C3	1	0.117	12.011
7134	CB	477	MPD2	C4	1	-0.15	12.011
7135	CB	477	MPD2	C5	1	-0.15	12.011
7136	HCMM	477	MPD2	H	1	0.15	1.0079
7137	HCMM	477	MPD2	H1	1	0.15	1.0079
7138	HCMM	477	MPD2	H2	1	0.15	1.0079
7139	HCMM	477	MPD2	H3	1	0.15	1.0079
7140	NC=O	477	MPD2	N	1	-0.547	14.0067
7141	HNCO	477	MPD2	H5	1	0.37	1.0079
7142	NC=O	477	MPD2	N1	1	-0.547	14.0067
7143	HNCO	477	MPD2	H7	1	0.37	1.0079
7144	CB	478	TMC3	C1	1	0.0862	12.011
7145	CB	478	TMC3	C2	1	-0.15	12.011
7146	CB	478	TMC3	C3	1	0.0862	12.011
7147	CB	478	TMC3	C4	1	-0.15	12.011
7148	CB	478	TMC3	C5	1	0.0862	12.011
7149	CB	478	TMC3	C6	1	-0.15	12.011
7150	C=O	478	TMC3	C	1	0.5438	12.011
7151	O=C	478	TMC3	O	1	-0.57	15.9994
7152	HCMM	478	TMC3	H	1	0.15	1.0079
7153	HCMM	478	TMC3	H1	1	0.15	1.0079
7154	HCMM	478	TMC3	H2	1	0.15	1.0079
7155	C=O	478	TMC3	C7	1	0.5438	12.011
7156	C=O	478	TMC3	C8	1	0.5438	12.011
7157	O=C	478	TMC3	O1	1	-0.57	15.9994
7158	O=C	478	TMC3	O2	1	-0.57	15.9994
7159	CB	479	MPD2	C	1	-0.15	12.011
7160	CB	479	MPD2	C1	1	0.117	12.011
7161	CB	479	MPD2	C2	1	-0.15	12.011
7162	CB	479	MPD2	C3	1	0.117	12.011
7163	CB	479	MPD2	C4	1	-0.15	12.011
7164	CB	479	MPD2	C5	1	-0.15	12.011
7165	HCMM	479	MPD2	H	1	0.15	1.0079
7166	HCMM	479	MPD2	H1	1	0.15	1.0079
7167	HCMM	479	MPD2	H2	1	0.15	1.0079
7168	HCMM	479	MPD2	H3	1	0.15	1.0079
7169	NC=O	479	MPD2	N	1	-0.547	14.0067
7170	HNCO	479	MPD2	H5	1	0.37	1.0079
7171	NC=O	479	MPD2	N1	1	-0.547	14.0067
7172	HNCO	479	MPD2	H7	1	0.37	1.0079
7173	CB	480	TMC3	C1	1	0.0862	12.011
7174	CB	480	TMC3	C2	1	-0.15	12.011
7175	CB	480	TMC3	C3	1	0.0862	12.011
7176	CB	480	TMC3	C4	1	-0.15	12.011
7177	CB	480	TMC3	C5	1	0.0862	12.011
7178	CB	480	TMC3	C6	1	-0.15	12.011
7179	C=O	480	TMC3	C	1	0.5438	12.011
7180	O=C	480	TMC3	O	1	-0.57	15.9994
7181	HCMM	480	TMC3	H	1	0.15	1.0079
7182	HCMM	480	TMC3	H1	1	0.15	1.0079
7183	HCMM	480	TMC3	H2	1	0.15	1.0079
7184	C=O	480	TMC3	C7	1	0.5438	12.011
7185	C=O	480	TMC3	C8	1	0.5438	12.011
7186	O=C	480	TMC3	O1	1	-0.57	15.9994
7187	O=C	480	TMC3	O2	1	-0.57	15.9994
7188	CB	481	MPD2	C	1	-0.15	12.011
7189	CB	481	MPD2	C1	1	0.117	12.011
7190	CB	481	MPD2	C2	1	-0.15	12.011
7191	CB	481	MPD2	C3	1	0.117	12.011
7192	CB	481	MPD2	C4	1	-0.15	12.011
7193	CB	481	MPD2	C5	1	-0.15	12.011
7194	HCMM	481	MPD2	H	1	0.15	1.0079
7195	HCMM	481	MPD2	H1	1	0.15	1.0079
7196	HCMM	481	MPD2	H2	1	0.15	1.0079
7197	HCMM	481	MPD2	H3	1	0.15	1.0079
7198	NC=O	481	MPD2	N	1	-0.547	14.0067
7199	HNCO	481	MPD2	H5	1	0.37	1.0079
7200	NC=O	481	MPD2	N1	1	-0.547	14.0067
7201	HNCO	481	MPD2	H7	1	0.37	1.0079
7202	CB	482	TMC3	C1	1	0.0862	12.011
7203	CB	482	TMC3	C2	1	-0.15	12.011
7204	CB	482	TMC3	C3	1	0.0862	12.011
7205	CB	482	TMC3	C4	1	-0.15	12.011
7206	CB	482	TMC3	C5	1	0.0862	12.011
7207	CB	482	TMC3	C6	1	-0.15	12.011
7208	C=O	482	TMC3	C	1	0.5438	12.011
7209	O=C	482	TMC3	O	1	-0.57	15.9994
7210	HCMM	482	TMC3	H	1	0.15	1.0079
7211	HCMM	482	TMC3	H1	1	0.15	1.0079
7212	HCMM	482	TMC3	H2	1	0.15	1.0079
7213	C=O	482	TMC3	C7	1	0.5438	12.011
7214	C=O	482	TMC3	C8	1	0.5438	12.011
7215	O=C	482	TMC3	O1	1	-0.57	15.9994
7216	O=C	482	TMC3	O2	1	-0.57	15.9994
7217	CB	483	TMC3	C1	1	0.0862	12.011
7218	CB	483	TMC3	C2	1	-0.15	12.011
7219	CB	483	TMC3	C3	1	0.0862	12.011
7220	CB	483	TMC3	C4	1	-0.15	12.011
7221	CB	483	TMC3	C5	1	0.0862	12.011
7222	CB	483	TMC3	C6	1	-0.15	12.011
7223	C=O	483	TMC3	C	1	0.5438	12.011
7224	O=C	483	TMC3	O	1	-0.57	15.9994
7225	HCMM	483	TMC3	H	1	0.15	1.0079
7226	HCMM	483	TMC3	H1	1	0.15	1.0079
7227	HCMM	483	TMC3	H2	1	0.15	1.0079
7228	C=O	483	TMC3	C7	1	0.5438	12.011
7229	C=O	483	TMC3	C8	1	0.5438	12.011
7230	O=C	483	TMC3	O1	1	-0.57	15.9994
7231	O=C	483	TMC3	O2	1	-0.57	15.9994
7232	CB	484	MPD2	C	1	-0.15	12.011
7233	CB	484	MPD2	C1	1	0.117	12.011
7234	CB	484	MPD2	C2	1	-0.15	12.011
7235	CB	484	MPD2	C3	1	0.117	12.011
7236	CB	484	MPD2	C4	1	-0.15	12.011
7237	CB	484	MPD2	C5	1	-0.15	12.011
7238	HCMM	484	MPD2	H	1	0.15	1.0079
7239	HCMM	484	MPD2	H1	1	0.15	1.0079
7240	HCMM	484	MPD2	H2	1	0.15	1.0079
7241	HCMM	484	MPD2	H3	1	0.15	1.0079
7242	NC=O	484	MPD2	N	1	-0.547	14.0067
7243	HNCO	484	MPD2	H5	1	0.37	1.0079
7244	NC=O	484	MPD2	N1	1	-0.547	14.0067
7245	HNCO	484	MPD2	H7	1	0.37	1.0079
7246	CB	485	TMC3	C1	1	0.0862	12.011
7247	CB	485	TMC3	C2	1	-0.15	12.011
7248	CB	485	TMC3	C3	1	0.0862	12.011
7249	CB	485	TMC3	C4	1	-0.15	12.011
7250	CB	485	TMC3	C5	1	0.0862	12.011
7251	CB	485	TMC3	C6	1	-0.15	12.011
7252	C=O	485	TMC3	C	1	0.5438	12.011
7253	O=C	485	TMC3	O	1	-0.57	15.9994
7254	HCMM	485	TMC3	H	1	0.15	1.0079
7255	HCMM	485	TMC3	H1	1	0.15	1.0079
7256	HCMM	485	TMC3	H2	1	0.15	1.0079
7257	C=O	485	TMC3	C7	1	0.5438	12.011
7258	C=O	485	TMC3	C8	1	0.5438	12.011
7259	O=C	485	TMC3	O1	1	-0.57	15.9994
7260	O=C	485	TMC3	O2	1	-0.57	15.9994
7261	CB	486	MPD2	C	1	-0.15	12.011
7262	CB	486	MPD2	C1	1	0.117	12.011
7263	CB	486	MPD2	C2	1	-0.15	12.011
7264	CB	486	MPD2	C3	1	0.117	12.011
7265	CB	486	MPD2	C4	1	-0.15	12.011
7266	CB	486	MPD2	C5	1	-0.15	12.011
7267	HCMM	486	MPD2	H	1	0.15	1.0079
7268	HCMM	486	MPD2	H1	1	0.15	1.0079
7269	HCMM	486	MPD2	H2	1	0.15	1.0079
7270	HCMM	486	MPD2	H3	1	0.15	1.0079
7271	NC=O	486	MPD2	N	1	-0.547	14.0067
7272	HNCO	486	MPD2	H5	1	0.37	1.0079
7273	NC=O	486	MPD2	N1	1	-0.547	14.0067
7274	HNCO	486	MPD2	H7	1	0.37	1.0079
7275	CB	487	TMC3	C1	1	0.0862	12.011
7276	CB	487	TMC3	C2	1	-0.15	12.011
7277	CB	487	TMC3	C3	1	0.0862	12.011
7278	CB	487	TMC3	C4	1	-0.15	12.011
7279	CB	487	TMC3	C5	1	0.0862	12.011
7280	CB	487	TMC3	C6	1	-0.15	12.011
7281	C=O	487	TMC3	C	1	0.5438	12.011
7282	O=C	487	TMC3	O	1	-0.57	15.9994
7283	HCMM	487	TMC3	H	1	0.15	1.0079
7284	HCMM	487	TMC3	H1	1	0.15	1.0079
7285	HCMM	487	TMC3	H2	1	0.15	1.0079
7286	C=O	487	TMC3	C7	1	0.5438	12.011
7287	C=O	487	TMC3	C8	1	0.5438	12.011
7288	O=C	487	TMC3	O1	1	-0.57	15.9994
7289	O=C	487	TMC3	O2	1	-0.57	15.9994
7290	CB	488	MPD2	C	1	-0.15	12.011
7291	CB	488	MPD2	C1	1	0.117	12.011
7292	CB	488	MPD2	C2	1	-0.15	12.011
7293	CB	488	MPD2	C3	1	0.117	12.011
7294	CB	488	MPD2	C4	1	-0.15	12.011
7295	CB	488	MPD2	C5	1	-0.15	12.011
7296	HCMM	488	MPD2	H	1	0.15	1.0079
7297	HCMM	488	MPD2	H1	1	0.15	1.0079
7298	HCMM	488	MPD2	H2	1	0.15	1.0079
7299	HCMM	488	MPD2	H3	1	0.15	1.0079
7300	NC=O	488	MPD2	N	1	-0.547	14.0067
7301	HNCO	488	MPD2	H5	1	0.37	1.0079
7302	NC=O	488	MPD2	N1	1	-0.547	14.0067
7303	HNCO	488	MPD2	H7	1	0.37	1.0079
7304	CB	489	TMC3	C1	1	0.0862	12.011
7305	CB	489	TMC3	C2	1	-0.15	12.011
7306	CB	489	TMC3	C3	1	0.0862	12.011
7307	CB	489	TMC3	C4	1	-0.15	12.011
7308	CB	489	TMC3	C5	1	0.0862	12.011
7309	CB	489	TMC3	C6	1	-0.15	12.011
7310	C=O	489	TMC3	C	1	0.5438	12.011
7311	O=C	489	TMC3	O	1	-0.57	15.9994
7312	HCMM	489	TMC3	H	1	0.15	1.0079
7313	HCMM	489	TMC3	H1	1	0.15	1.0079
7314	HCMM	489	TMC3	H2	1	0.15	1.0079
7315	C=O	489	TMC3	C7	1	0.5438	12.011
7316	C=O	489	TMC3	C8	1	0.5438	12.011
7317	O=C	489	TMC3	O1	1	-0.57	15.9994
7318	O=C	489	TMC3	O2	1	-0.57	15.9994
7319	CB	490	MPD2	C	1	-0.15	12.011
7320	CB	490	MPD2	C1	1	0.117	12.011
7321	CB	490	MPD2	C2	1	-0.15	12.011
7322	CB	490	MPD2	C3	1	0.117	12.011
7323	CB	490	MPD2	C4	1	-0.15	12.011
7324	CB	490	MPD2	C5	1	-0.15	12.011
7325	HCMM	490	MPD2	H	1	0.15	1.0079
7326	HCMM	490	MPD2	H1	1	0.15	1.0079
7327	HCMM	490	MPD2	H2	1	0.15	1.0079
7328	HCMM	490	MPD2	H3	1	0.15	1.0079
7329	NC=O	490	MPD2	N	1	-0.547	14.0067
7330	HNCO	490	MPD2	H5	1	0.37	1.0079
7331	NC=O	490	MPD2	N1	1	-0.547	14.0067
7332	HNCO	490	MPD2	H7	1	0.37	1.0079
7333	CB	491	TMC3	C1	1	0.0862	12.011
7334	CB	491	TMC3	C2	1	-0.15	12.011
7335	CB	491	TMC3	C3	1	0.0862	12.011
7336	CB	491	TMC3	C4	1	-0.15	12.011
7337	CB	491	TMC3	C5	1	0.0862	12.011
7338	CB	491	TMC3	C6	1	-0.15	12.011
7339	C=O	491	TMC3	C	1	0.5438	12.011
7340	O=C	491	TMC3	O	1	-0.57	15.9994
7341	HCMM	491	TMC3	H	1	0.15	1.0079
7342	HCMM	491	TMC3	H1	1	0.15	1.0079
7343	HCMM	491	TMC3	H2	1	0.15	1.0079
7344	C=O	491	TMC3	C7	1	0.5438	12.011
7345	C=O	491	TMC3	C8	1	0.5438	12.011
7346	O=C	491	TMC3	O1	1	-0.57	15.9994
7347	O=C	491	TMC3	O2	1	-0.57	15.9994
7348	CB	492	MPD2	C	1	-0.15	12.011
7349	CB	492	MPD2	C1	1	0.117	12.011
7350	CB	492	MPD2	C2	1	-0.15	12.011
7351	CB	492	MPD2	C3	1	0.117	12.011
7352	CB	492	MPD2	C4	1	-0.15	12.011
7353	CB	492	MPD2	C5	1	-0.15	12.011
7354	HCMM	492	MPD2	H	1	0.15	1.0079
7355	HCMM	492	MPD2	H1	1	0.15	1.0079
7356	HCMM	492	MPD2	H2	1	0.15	1.0079
7357	HCMM	492	MPD2	H3	1	0.15	1.0079
7358	NC=O	492	MPD2	N	1	-0.547	14.0067
7359	HNCO	492	MPD2	H5	1	0.37	1.0079
7360	NC=O	492	MPD2	N1	1	-0.547	14.0067
7361	HNCO	492	MPD2	H7	1	0.37	1.0079
7362	CB	493	TMC3	C1	1	0.0862	12.011
7363	CB	493	TMC3	C2	1	-0.15	12.011
7364	CB	493	TMC3	C3	1	0.0862	12.011
7365	CB	493	TMC3	C4	1	-0.15	12.011
7366	CB	493	TMC3	C5	1	0.0862	12.011
7367	CB	493	TMC3	C6	1	-0.15	12.011
7368	C=O	493	TMC3	C	1	0.5438	12.011
7369	O=C	493	TMC3	O	1	-0.57	15.9994
7370	HCMM	493	TMC3	H	1	0.15	1.0079
7371	HCMM	493	TMC3	H1	1	0.15	1.0079
7372	HCMM	493	TMC3	H2	1	0.15	1.0079
7373	C=O	493	TMC3	C7	1	0.5438	12.011
7374	C=O	493	TMC3	C8	1	0.5438	12.011
7375	O=C	493	TMC3	O1	1	-0.57	15.9994
7376	O=C	493	TMC3	O2	1	-0.57	15.9994
7377	CB	494	TMC3	C1	1	0.0862	12.011
7378	CB	494	TMC3	C2	1	-0.15	12.011
7379	CB	494	TMC3	C3	1	0.0862	12.011
7380	CB	494	TMC3	C4	1	-0.15	12.011
7381	CB	494	TMC3	C5	1	0.0862	12.011
7382	CB	494	TMC3	C6	1	-0.15	12.011
7383	C=O	494	TMC3	C	1	0.5438	12.011
7384	O=C	494	TMC3	O	1	-0.57	15.9994
7385	HCMM	494	TMC3	H	1	0.15	1.0079
7386	HCMM	494	TMC3	H1	1	0.15	1.0079
7387	HCMM	494	TMC3	H2	1	0.15	1.0079
7388	C=O	494	TMC3	C7	1	0.5438	12.011
7389	C=O	494	TMC3	C8	1	0.5438	12.011
7390	O=C	494	TMC3	O1	1	-0.57	15.9994
7391	O=C	494	TMC3	O2	1	-0.57	15.9994
7392	CB	495	TMC3	C1	1	0.0862	12.011
7393	CB	495	TMC3	C2	1	-0.15	12.011
7394	CB	495	TMC3	C3	1	0.0862	12.011
7395	CB	495	TMC3	C4	1	-0.15	12.011
7396	CB	495	TMC3	C5	1	0.0862	12.011
7397	CB	495	TMC3	C6	1	-0.15	12.011
7398	C=O	495	TMC3	C	1	0.5438	12.011
7399	O=C	495	TMC3	O	1	-0.57	15.9994
7400	HCMM	495	TMC3	H	1	0.15	1.0079
7401	HCMM	495	TMC3	H1	1	0.15	1.0079
7402	HCMM	495	TMC3	H2	1	0.15	1.0079
7403	C=O	495	TMC3	C7	1	0.5438	12.011
7404	C=O	495	TMC3	C8	1	0.5438	12.011
7405	O=C	495	TMC3	O1	1	-0.57	15.9994
7406	O=C	495	TMC3	O2	1	-0.57	15.9994
7407	CB	496	MPD2	C	1	-0.15	12.011
7408	CB	496	MPD2	C1	1	0.117	12.011
7409	CB	496	MPD2	C2	1	-0.15	12.011
7410	CB	496	MPD2	C3	1	0.117	12.011
7411	CB	496	MPD2	C4	1	-0.15	12.011
7412	CB	496	MPD2	C5	1	-0.15	12.011
7413	HCMM	496	MPD2	H	1	0.15	1.0079
7414	HCMM	496	MPD2	H1	1	0.15	1.0079
7415	HCMM	496	MPD2	H2	1	0.15	1.0079
7416	HCMM	496	MPD2	H3	1	0.15	1.0079
7417	NC=O	496	MPD2	N	1	-0.547	14.0067
7418	HNCO	496	MPD2	H5	1	0.37	1.0079
7419	NC=O	496	MPD2	N1	1	-0.547	14.0067
7420	HNCO	496	MPD2	H7	1	0.37	1.0079
7421	CB	497	TMC3	C1	1	0.0862	12.011
7422	CB	497	TMC3	C2	1	-0.15	12.011
7423	CB	497	TMC3	C3	1	0.0862	12.011
7424	CB	497	TMC3	C4	1	-0.15	12.011
7425	CB	497	TMC3	C5	1	0.0862	12.011
7426	CB	497	TMC3	C6	1	-0.15	12.011
7427	C=O	497	TMC3	C	1	0.5438	12.011
7428	O=C	497	TMC3	O	1	-0.57	15.9994
7429	HCMM	497	TMC3	H	1	0.15	1.0079
7430	HCMM	497	TMC3	H1	1	0.15	1.0079
7431	HCMM	497	TMC3	H2	1	0.15	1.0079
7432	C=O	497	TMC3	C7	1	0.5438	12.011
7433	C=O	497	TMC3	C8	1	0.5438	12.011
7434	O=C	497	TMC3	O1	1	-0.57	15.9994
7435	O=C	497	TMC3	O2	1	-0.57	15.9994
7436	CB	498	MPD2	C	1	-0.15	12.011
7437	CB	498	MPD2	C1	1	0.117	12.011
7438	CB	498	MPD2	C2	1	-0.15	12.011
7439	CB	498	MPD2	C3	1	0.117	12.011
7440	CB	498	MPD2	C4	1	-0.15	12.011
7441	CB	498	MPD2	C5	1	-0.15	12.011
7442	HCMM	498	MPD2	H	1	0.15	1.0079
7443	HCMM	498	MPD2	H1	1	0.15	1.0079
7444	HCMM	498	MPD2	H2	1	0.15	1.0079
7445	HCMM	498	MPD2	H3	1	0.15	1.0079
7446	NC=O	498	MPD2	N	1	-0.547	14.0067
7447	HNCO	498	MPD2	H5	1	0.37	1.0079
7448	NC=O	498	MPD2	N1	1	-0.547	14.0067
7449	HNCO	498	MPD2	H7	1	0.37	1.0079
7450	CB	499	TMC3	C1	1	0.0862	12.011
7451	CB	499	TMC3	C2	1	-0.15	12.011
7452	CB	499	TMC3	C3	1	0.0862	12.011
7453	CB	499	TMC3	C4	1	-0.15	12.011
7454	CB	499	TMC3	C5	1	0.0862	12.011
7455	CB	499	TMC3	C6	1	-0.15	12.011
7456	C=O	499	TMC3	C	1	0.5438	12.011
7457	O=C	499	TMC3	O	1	-0.57	15.9994
7458	HCMM	499	TMC3	H	1	0.15	1.0079
7459	HCMM	499	TMC3	H1	1	0.15	1.0079
7460	HCMM	499	TMC3	H2	1	0.15	1.0079
7461	C=O	499	TMC3	C7	1	0.5438	12.011
7462	C=O	499	TMC3	C8	1	0.5438	12.011
7463	O=C	499	TMC3	O1	1	-0.57	15.9994
7464	O=C	499	TMC3	O2	1	-0.57	15.9994
7465	CB	500	MPD2	C	1	-0.15	12.011
7466	CB	500	MPD2	C1	1	0.117	12.011
7467	CB	500	MPD2	C2	1	-0.15	12.011
7468	CB	500	MPD2	C3	1	0.117	12.011
7469	CB	500	MPD2	C4	1	-0.15	12.011
7470	CB	500	MPD2	C5	1	-0.15	12.011
7471	HCMM	500	MPD2	H	1	0.15	1.0079
7472	HCMM	500	MPD2	H1	1	0.15	1.0079
7473	HCMM	500	MPD2	H2	1	0.15	1.0079
7474	HCMM	500	MPD2	H3	1	0.15	1.0079
7475	NC=O	500	MPD2	N	1	-0.547	14.0067
7476	HNCO	500	MPD2	H5	1	0.37	1.0079
7477	NC=O	500	MPD2	N1	1	-0.547	14.0067
7478	HNCO	500	MPD2	H7	1	0.37	1.0079
7479	CB	501	TMC3	C1	1	0.0862	12.011
7480	CB	501	TMC3	C2	1	-0.15	12.011
7481	CB	501	TMC3	C3	1	0.0862	12.011
7482	CB	501	TMC3	C4	1	-0.15	12.011
7483	CB	501	TMC3	C5	1	0.0862	12.011
7484	CB	501	TMC3	C6	1	-0.15	12.011
7485	C=O	501	TMC3	C	1	0.5438	12.011
7486	O=C	501	TMC3	O	1	-0.57	15.9994
7487	HCMM	501	TMC3	H	1	0.15	1.0079
7488	HCMM	501	TMC3	H1	1	0.15	1.0079
7489	HCMM	501	TMC3	H2	1	0.15	1.0079
7490	C=O	501	TMC3	C7	1	0.5438	12.011
7491	C=O	501	TMC3	C8	1	0.5438	12.011
7492	O=C	501	TMC3	O1	1	-0.57	15.9994
7493	O=C	501	TMC3	O2	1	-0.57	15.9994
7494	CB	502	TMC3	C1	1	0.0862	12.011
7495	CB	502	TMC3	C2	1	-0.15	12.011
7496	CB	502	TMC3	C3	1	0.0862	12.011
7497	CB	502	TMC3	C4	1	-0.15	12.011
7498	CB	502	TMC3	C5	1	0.0862	12.011
7499	CB	502	TMC3	C6	1	-0.15	12.011
7500	C=O	502	TMC3	C	1	0.5438	12.011
7501	O=C	502	TMC3	O	1	-0.57	15.9994
7502	HCMM	502	TMC3	H	1	0.15	1.0079
7503	HCMM	502	TMC3	H1	1	0.15	1.0079
7504	HCMM	502	TMC3	H2	1	0.15	1.0079
7505	C=O	502	TMC3	C7	1	0.5438	12.011
7506	C=O	502	TMC3	C8	1	0.5438	12.011
7507	O=C	502	TMC3	O1	1	-0.57	15.9994
7508	O=C	502	TMC3	O2	1	-0.57	15.9994
7509	CB	503	MPD2	C	1	-0.15	12.011
7510	CB	503	MPD2	C1	1	0.117	12.011
7511	CB	503	MPD2	C2	1	-0.15	12.011
7512	CB	503	MPD2	C3	1	0.117	12.011
7513	CB	503	MPD2	C4	1	-0.15	12.011
7514	CB	503	MPD2	C5	1	-0.15	12.011
7515	HCMM	503	MPD2	H	1	0.15	1.0079
7516	HCMM	503	MPD2	H1	1	0.15	1.0079
7517	HCMM	503	MPD2	H2	1	0.15	1.0079
7518	HCMM	503	MPD2	H3	1	0.15	1.0079
7519	NC=O	503	MPD2	N	1	-0.547	14.0067
7520	HNCO	503	MPD2	H5	1	0.37	1.0079
7521	NC=O	503	MPD2	N1	1	-0.547	14.0067
7522	HNCO	503	MPD2	H7	1	0.37	1.0079
7523	CB	504	TMC3	C1	1	0.0862	12.011
7524	CB	504	TMC3	C2	1	-0.15	12.011
7525	CB	504	TMC3	C3	1	0.0862	12.011
7526	CB	504	TMC3	C4	1	-0.15	12.011
7527	CB	504	TMC3	C5	1	0.0862	12.011
7528	CB	504	TMC3	C6	1	-0.15	12.011
7529	C=O	504	TMC3	C	1	0.5438	12.011
7530	O=C	504	TMC3	O	1	-0.57	15.9994
7531	HCMM	504	TMC3	H	1	0.15	1.0079
7532	HCMM	504	TMC3	H1	1	0.15	1.0079
7533	HCMM	504	TMC3	H2	1	0.15	1.0079
7534	C=O	504	TMC3	C7	1	0.5438	12.011
7535	C=O	504	TMC3	C8	1	0.5438	12.011
7536	O=C	504	TMC3	O1	1	-0.57	15.9994
7537	O=C	504	TMC3	O2	1	-0.57	15.9994
7538	CB	505	MPD2	C	1	-0.15	12.011
7539	CB	505	MPD2	C1	1	0.117	12.011
7540	CB	505	MPD2	C2	1	-0.15	12.011
7541	CB	505	MPD2	C3	1	0.117	12.011
7542	CB	505	MPD2	C4	1	-0.15	12.011
7543	CB	505	MPD2	C5	1	-0.15	12.011
7544	HCMM	505	MPD2	H	1	0.15	1.0079
7545	HCMM	505	MPD2	H1	1	0.15	1.0079
7546	HCMM	505	MPD2	H2	1	0.15	1.0079
7547	HCMM	505	MPD2	H3	1	0.15	1.0079
7548	NC=O	505	MPD2	N	1	-0.547	14.0067
7549	HNCO	505	MPD2	H5	1	0.37	1.0079
7550	NC=O	505	MPD2	N1	1	-0.547	14.0067
7551	HNCO	505	MPD2	H7	1	0.37	1.0079
7552	CB	506	TMC3	C1	1	0.0862	12.011
7553	CB	506	TMC3	C2	1	-0.15	12.011
7554	CB	506	TMC3	C3	1	0.0862	12.011
7555	CB	506	TMC3	C4	1	-0.15	12.011
7556	CB	506	TMC3	C5	1	0.0862	12.011
7557	CB	506	TMC3	C6	1	-0.15	12.011
7558	C=O	506	TMC3	C	1	0.5438	12.011
7559	O=C	506	TMC3	O	1	-0.57	15.9994
7560	HCMM	506	TMC3	H	1	0.15	1.0079
7561	HCMM	506	TMC3	H1	1	0.15	1.0079
7562	HCMM	506	TMC3	H2	1	0.15	1.0079
7563	C=O	506	TMC3	C7	1	0.5438	12.011
7564	C=O	506	TMC3	C8	1	0.5438	12.011
7565	O=C	506	TMC3	O1	1	-0.57	15.9994
7566	O=C	506	TMC3	O2	1	-0.57	15.9994
7567	CB	507	TMC3	C1	1	0.0862	12.011
7568	CB	507	TMC3	C2	1	-0.15	12.011
7569	CB	507	TMC3	C3	1	0.0862	12.011
7570	CB	507	TMC3	C4	1	-0.15	12.011
7571	CB	507	TMC3	C5	1	0.0862	12.011
7572	CB	507	TMC3	C6	1	-0.15	12.011
7573	C=O	507	TMC3	C	1	0.5438	12.011
7574	O=C	507	TMC3	O	1	-0.57	15.9994
7575	HCMM	507	TMC3	H	1	0.15	1.0079
7576	HCMM	507	TMC3	H1	1	0.15	1.0079
7577	HCMM	507	TMC3	H2	1	0.15	1.0079
7578	C=O	507	TMC3	C7	1	0.5438	12.011
7579	C=O	507	TMC3	C8	1	0.5438	12.011
7580	O=C	507	TMC3	O1	1	-0.57	15.9994
7581	O=C	507	TMC3	O2	1	-0.57	15.9994
7582	CB	508	MPD2	C	1	-0.15	12.011
7583	CB	508	MPD2	C1	1	0.117	12.011
7584	CB	508	MPD2	C2	1	-0.15	12.011
7585	CB	508	MPD2	C3	1	0.117	12.011
7586	CB	508	MPD2	C4	1	-0.15	12.011
7587	CB	508	MPD2	C5	1	-0.15	12.011
7588	HCMM	508	MPD2	H	1	0.15	1.0079
7589	HCMM	508	MPD2	H1	1	0.15	1.0079
7590	HCMM	508	MPD2	H2	1	0.15	1.0079
7591	HCMM	508	MPD2	H3	1	0.15	1.0079
7592	NC=O	508	MPD2	N	1	-0.547	14.0067
7593	HNCO	508	MPD2	H5	1	0.37	1.0079
7594	NC=O	508	MPD2	N1	1	-0.547	14.0067
7595	HNCO	508	MPD2	H7	1	0.37	1.0079
7596	CB	509	TMC3	C1	1	0.0862	12.011
7597	CB	509	TMC3	C2	1	-0.15	12.011
7598	CB	509	TMC3	C3	1	0.0862	12.011
7599	CB	509	TMC3	C4	1	-0.15	12.011
7600	CB	509	TMC3	C5	1	0.0862	12.011
7601	CB	509	TMC3	C6	1	-0.15	12.011
7602	C=O	509	TMC3	C	1	0.5438	12.011
7603	O=C	509	TMC3	O	1	-0.57	15.9994
7604	HCMM	509	TMC3	H	1	0.15	1.0079
7605	HCMM	509	TMC3	H1	1	0.15	1.0079
7606	HCMM	509	TMC3	H2	1	0.15	1.0079
7607	C=O	509	TMC3	C7	1	0.5438	12.011
7608	C=O	509	TMC3	C8	1	0.5438	12.011
7609	O=C	509	TMC3	O1	1	-0.57	15.9994
7610	O=C	509	TMC3	O2	1	-0.57	15.9994
7611	CB	510	MPD2	C	1	-0.15	12.011
7612	CB	510	MPD2	C1	1	0.117	12.011
7613	CB	510	MPD2	C2	1	-0.15	12.011
7614	CB	510	MPD2	C3	1	0.117	12.011
7615	CB	510	MPD2	C4	1	-0.15	12.011
7616	CB	510	MPD2	C5	1	-0.15	12.011
7617	HCMM	510	MPD2	H	1	0.15	1.0079
7618	HCMM	510	MPD2	H1	1	0.15	1.0079
7619	HCMM	510	MPD2	H2	1	0.15	1.0079
7620	HCMM	510	MPD2	H3	1	0.15	1.0079
7621	NC=O	510	MPD2	N	1	-0.547	14.0067
7622	HNCO	510	MPD2	H5	1	0.37	1.0079
7623	NC=O	510	MPD2	N1	1	-0.547	14.0067
7624	HNCO	510	MPD2	H7	1	0.37	1.0079
7625	CB	511	TMC3	C1	1	0.0862	12.011
7626	CB	511	TMC3	C2	1	-0.15	12.011
7627	CB	511	TMC3	C3	1	0.0862	12.011
7628	CB	511	TMC3	C4	1	-0.15	12.011
7629	CB	511	TMC3	C5	1	0.0862	12.011
7630	CB	511	TMC3	C6	1	-0.15	12.011
7631	C=O	511	TMC3	C	1	0.5438	12.011
7632	O=C	511	TMC3	O	1	-0.57	15.9994
7633	HCMM	511	TMC3	H	1	0.15	1.0079
7634	HCMM	511	TMC3	H1	1	0.15	1.0079
7635	HCMM	511	TMC3	H2	1	0.15	1.0079
7636	C=O	511	TMC3	C7	1	0.5438	12.011
7637	C=O	511	TMC3	C8	1	0.5438	12.011
7638	O=C	511	TMC3	O1	1	-0.57	15.9994
7639	O=C	511	TMC3	O2	1	-0.57	15.9994
7640	CB	512	TMC3	C1	1	0.0862	12.011
7641	CB	512	TMC3	C2	1	-0.15	12.011
7642	CB	512	TMC3	C3	1	0.0862	12.011
7643	CB	512	TMC3	C4	1	-0.15	12.011
7644	CB	512	TMC3	C5	1	0.0862	12.011
7645	CB	512	TMC3	C6	1	-0.15	12.011
7646	C=O	512	TMC3	C	1	0.5438	12.011
7647	O=C	512	TMC3	O	1	-0.57	15.9994
7648	HCMM	512	TMC3	H	1	0.15	1.0079
7649	HCMM	512	TMC3	H1	1	0.15	1.0079
7650	HCMM	512	TMC3	H2	1	0.15	1.0079
7651	C=O	512	TMC3	C7	1	0.5438	12.011
7652	C=O	512	TMC3	C8	1	0.5438	12.011
7653	O=C	512	TMC3	O1	1	-0.57	15.9994
7654	O=C	512	TMC3	O2	1	-0.57	15.9994
7655	CB	513	MPD2	C	1	-0.15	12.011
7656	CB	513	MPD2	C1	1	0.117	12.011
7657	CB	513	MPD2	C2	1	-0.15	12.011
7658	CB	513	MPD2	C3	1	0.117	12.011
7659	CB	513	MPD2	C4	1	-0.15	12.011
7660	CB	513	MPD2	C5	1	-0.15	12.011
7661	HCMM	513	MPD2	H	1	0.15	1.0079
7662	HCMM	513	MPD2	H1	1	0.15	1.0079
7663	HCMM	513	MPD2	H2	1	0.15	1.0079
7664	HCMM	513	MPD2	H3	1	0.15	1.0079
7665	NC=O	513	MPD2	N	1	-0.547	14.0067
7666	HNCO	513	MPD2	H5	1	0.37	1.0079
7667	NC=O	513	MPD2	N1	1	-0.547	14.0067
7668	HNCO	513	MPD2	H7	1	0.37	1.0079
7669	CB	514	TMC3	C1	1	0.0862	12.011
7670	CB	514	TMC3	C2	1	-0.15	12.011
7671	CB	514	TMC3	C3	1	0.0862	12.011
7672	CB	514	TMC3	C4	1	-0.15	12.011
7673	CB	514	TMC3	C5	1	0.0862	12.011
7674	CB	514	TMC3	C6	1	-0.15	12.011
7675	C=O	514	TMC3	C	1	0.5438	12.011
7676	O=C	514	TMC3	O	1	-0.57	15.9994
7677	HCMM	514	TMC3	H	1	0.15	1.0079
7678	HCMM	514	TMC3	H1	1	0.15	1.0079
7679	HCMM	514	TMC3	H2	1	0.15	1.0079
7680	C=O	514	TMC3	C7	1	0.5438	12.011
7681	C=O	514	TMC3	C8	1	0.5438	12.011
7682	O=C	514	TMC3	O1	1	-0.57	15.9994
7683	O=C	514	TMC3	O2	1	-0.57	15.9994
7684	CB	515	MPD2	C	1	-0.15	12.011
7685	CB	515	MPD2	C1	1	0.117	12.011
7686	CB	515	MPD2	C2	1	-0.15	12.011
7687	CB	515	MPD2	C3	1	0.117	12.011
7688	CB	515	MPD2	C4	1	-0.15	12.011
7689	CB	515	MPD2	C5	1	-0.15	12.011
7690	HCMM	515	MPD2	H	1	0.15	1.0079
7691	HCMM	515	MPD2	H1	1	0.15	1.0079
7692	HCMM	515	MPD2	H2	1	0.15	1.0079
7693	HCMM	515	MPD2	H3	1	0.15	1.0079
7694	NC=O	515	MPD2	N	1	-0.547	14.0067
7695	HNCO	515	MPD2	H5	1	0.37	1.0079
7696	NC=O	515	MPD2	N1	1	-0.547	14.0067
7697	HNCO	515	MPD2	H7	1	0.37	1.0079
7698	CB	516	TMC3	C1	1	0.0862	12.011
7699	CB	516	TMC3	C2	1	-0.15	12.011
7700	CB	516	TMC3	C3	1	0.0862	12.011
7701	CB	516	TMC3	C4	1	-0.15	12.011
7702	CB	516	TMC3	C5	1	0.0862	12.011
7703	CB	516	TMC3	C6	1	-0.15	12.011
7704	C=O	516	TMC3	C	1	0.5438	12.011
7705	O=C	516	TMC3	O	1	-0.57	15.9994
7706	HCMM	516	TMC3	H	1	0.15	1.0079
7707	HCMM	516	TMC3	H1	1	0.15	1.0079
7708	HCMM	516	TMC3	H2	1	0.15	1.0079
7709	C=O	516	TMC3	C7	1	0.5438	12.011
7710	C=O	516	TMC3	C8	1	0.5438	12.011
7711	O=C	516	TMC3	O1	1	-0.57	15.9994
7712	O=C	516	TMC3	O2	1	-0.57	15.9994
7713	CB	517	MPD2	C	1	-0.15	12.011
7714	CB	517	MPD2	C1	1	0.117	12.011
7715	CB	517	MPD2	C2	1	-0.15	12.011
7716	CB	517	MPD2	C3	1	0.117	12.011
7717	CB	517	MPD2	C4	1	-0.15	12.011
7718	CB	517	MPD2	C5	1	-0.15	12.011
7719	HCMM	517	MPD2	H	1	0.15	1.0079
7720	HCMM	517	MPD2	H1	1	0.15	1.0079
7721	HCMM	517	MPD2	H2	1	0.15	1.0079
7722	HCMM	517	MPD2	H3	1	0.15	1.0079
7723	NC=O	517	MPD2	N	1	-0.547	14.0067
7724	HNCO	517	MPD2	H5	1	0.37	1.0079
7725	NC=O	517	MPD2	N1	1	-0.547	14.0067
7726	HNCO	517	MPD2	H7	1	0.37	1.0079
7727	CB	518	TMC3	C1	1	0.0862	12.011
7728	CB	518	TMC3	C2	1	-0.15	12.011
7729	CB	518	TMC3	C3	1	0.0862	12.011
7730	CB	518	TMC3	C4	1	-0.15	12.011
7731	CB	518	TMC3	C5	1	0.0862	12.011
7732	CB	518	TMC3	C6	1	-0.15	12.011
7733	C=O	518	TMC3	C	1	0.5438	12.011
7734	O=C	518	TMC3	O	1	-0.57	15.9994
7735	HCMM	518	TMC3	H	1	0.15	1.0079
7736	HCMM	518	TMC3	H1	1	0.15	1.0079
7737	HCMM	518	TMC3	H2	1	0.15	1.0079
7738	C=O	518	TMC3	C7	1	0.5438	12.011
7739	C=O	518	TMC3	C8	1	0.5438	12.011
7740	O=C	518	TMC3	O1	1	-0.57	15.9994
7741	O=C	518	TMC3	O2	1	-0.57	15.9994
7742	CB	519	MPD2	C	1	-0.15	12.011
7743	CB	519	MPD2	C1	1	0.117	12.011
7744	CB	519	MPD2	C2	1	-0.15	12.011
7745	CB	519	MPD2	C3	1	0.117	12.011
7746	CB	519	MPD2	C4	1	-0.15	12.011
7747	CB	519	MPD2	C5	1	-0.15	12.011
7748	HCMM	519	MPD2	H	1	0.15	1.0079
7749	HCMM	519	MPD2	H1	1	0.15	1.0079
7750	HCMM	519	MPD2	H2	1	0.15	1.0079
7751	HCMM	519	MPD2	H3	1	0.15	1.0079
7752	NC=O	519	MPD2	N	1	-0.547	14.0067
7753	HNCO	519	MPD2	H5	1	0.37	1.0079
7754	NC=O	519	MPD2	N1	1	-0.547	14.0067
7755	HNCO	519	MPD2	H7	1	0.37	1.0079
7756	CB	520	TMC3	C1	1	0.0862	12.011
7757	CB	520	TMC3	C2	1	-0.15	12.011
7758	CB	520	TMC3	C3	1	0.0862	12.011
7759	CB	520	TMC3	C4	1	-0.15	12.011
7760	CB	520	TMC3	C5	1	0.0862	12.011
7761	CB	520	TMC3	C6	1	-0.15	12.011
7762	C=O	520	TMC3	C	1	0.5438	12.011
7763	O=C	520	TMC3	O	1	-0.57	15.9994
7764	HCMM	520	TMC3	H	1	0.15	1.0079
7765	HCMM	520	TMC3	H1	1	0.15	1.0079
7766	HCMM	520	TMC3	H2	1	0.15	1.0079
7767	C=O	520	TMC3	C7	1	0.5438	12.011
7768	C=O	520	TMC3	C8	1	0.5438	12.011
7769	O=C	520	TMC3	O1	1	-0.57	15.9994
7770	O=C	520	TMC3	O2	1	-0.57	15.9994
7771	CB	521	MPD2	C	1	-0.15	12.011
7772	CB	521	MPD2	C1	1	0.117	12.011
7773	CB	521	MPD2	C2	1	-0.15	12.011
7774	CB	521	MPD2	C3	1	0.117	12.011
7775	CB	521	MPD2	C4	1	-0.15	12.011
7776	CB	521	MPD2	C5	1	-0.15	12.011
7777	HCMM	521	MPD2	H	1	0.15	1.0079
7778	HCMM	521	MPD2	H1	1	0.15	1.0079
7779	HCMM	521	MPD2	H2	1	0.15	1.0079
7780	HCMM	521	MPD2	H3	1	0.15	1.0079
7781	NC=O	521	MPD2	N	1	-0.547	14.0067
7782	HNCO	521	MPD2	H5	1	0.37	1.0079
7783	NC=O	521	MPD2	N1	1	-0.547	14.0067
7784	HNCO	521	MPD2	H7	1	0.37	1.0079
7785	CB	522	TMC3	C1	1	0.0862	12.011
7786	CB	522	TMC3	C2	1	-0.15	12.011
7787	CB	522	TMC3	C3	1	0.0862	12.011
7788	CB	522	TMC3	C4	1	-0.15	12.011
7789	CB	522	TMC3	C5	1	0.0862	12.011
7790	CB	522	TMC3	C6	1	-0.15	12.011
7791	C=O	522	TMC3	C	1	0.5438	12.011
7792	O=C	522	TMC3	O	1	-0.57	15.9994
7793	HCMM	522	TMC3	H	1	0.15	1.0079
7794	HCMM	522	TMC3	H1	1	0.15	1.0079
7795	HCMM	522	TMC3	H2	1	0.15	1.0079
7796	C=O	522	TMC3	C7	1	0.5438	12.011
7797	C=O	522	TMC3	C8	1	0.5438	12.011
7798	O=C	522	TMC3	O1	1	-0.57	15.9994
7799	O=C	522	TMC3	O2	1	-0.57	15.9994
7800	CB	523	MPD2	C	1	-0.15	12.011
7801	CB	523	MPD2	C1	1	0.117	12.011
7802	CB	523	MPD2	C2	1	-0.15	12.011
7803	CB	523	MPD2	C3	1	0.117	12.011
7804	CB	523	MPD2	C4	1	-0.15	12.011
7805	CB	523	MPD2	C5	1	-0.15	12.011
7806	HCMM	523	MPD2	H	1	0.15	1.0079
7807	HCMM	523	MPD2	H1	1	0.15	1.0079
7808	HCMM	523	MPD2	H2	1	0.15	1.0079
7809	HCMM	523	MPD2	H3	1	0.15	1.0079
7810	NC=O	523	MPD2	N	1	-0.547	14.0067
7811	HNCO	523	MPD2	H5	1	0.37	1.0079
7812	NC=O	523	MPD2	N1	1	-0.547	14.0067
7813	HNCO	523	MPD2	H7	1	0.37	1.0079
7814	CB	524	TMC3	C1	1	0.0862	12.011
7815	CB	524	TMC3	C2	1	-0.15	12.011
7816	CB	524	TMC3	C3	1	0.0862	12.011
7817	CB	524	TMC3	C4	1	-0.15	12.011
7818	CB	524	TMC3	C5	1	0.0862	12.011
7819	CB	524	TMC3	C6	1	-0.15	12.011
7820	C=O	524	TMC3	C	1	0.5438	12.011
7821	O=C	524	TMC3	O	1	-0.57	15.9994
7822	HCMM	524	TMC3	H	1	0.15	1.0079
7823	HCMM	524	TMC3	H1	1	0.15	1.0079
7824	HCMM	524	TMC3	H2	1	0.15	1.0079
7825	C=O	524	TMC3	C7	1	0.5438	12.011
7826	C=O	524	TMC3	C8	1	0.5438	12.011
7827	O=C	524	TMC3	O1	1	-0.57	15.9994
7828	O=C	524	TMC3	O2	1	-0.57	15.9994
7829	CB	525	MPD2	C	1	-0.15	12.011
7830	CB	525	MPD2	C1	1	0.117	12.011
7831	CB	525	MPD2	C2	1	-0.15	12.011
7832	CB	525	MPD2	C3	1	0.117	12.011
7833	CB	525	MPD2	C4	1	-0.15	12.011
7834	CB	525	MPD2	C5	1	-0.15	12.011
7835	HCMM	525	MPD2	H	1	0.15	1.0079
7836	HCMM	525	MPD2	H1	1	0.15	1.0079
7837	HCMM	525	MPD2	H2	1	0.15	1.0079
7838	HCMM	525	MPD2	H3	1	0.15	1.0079
7839	NC=O	525	MPD2	N	1	-0.547	14.0067
7840	HNCO	525	MPD2	H5	1	0.37	1.0079
7841	NC=O	525	MPD2	N1	1	-0.547	14.0067
7842	HNCO	525	MPD2	H7	1	0.37	1.0079
7843	CB	526	TMC3	C1	1	0.0862	12.011
7844	CB	526	TMC3	C2	1	-0.15	12.011
7845	CB	526	TMC3	C3	1	0.0862	12.011
7846	CB	526	TMC3	C4	1	-0.15	12.011
7847	CB	526	TMC3	C5	1	0.0862	12.011
7848	CB	526	TMC3	C6	1	-0.15	12.011
7849	C=O	526	TMC3	C	1	0.5438	12.011
7850	O=C	526	TMC3	O	1	-0.57	15.9994
7851	HCMM	526	TMC3	H	1	0.15	1.0079
7852	HCMM	526	TMC3	H1	1	0.15	1.0079
7853	HCMM	526	TMC3	H2	1	0.15	1.0079
7854	C=O	526	TMC3	C7	1	0.5438	12.011
7855	C=O	526	TMC3	C8	1	0.5438	12.011
7856	O=C	526	TMC3	O1	1	-0.57	15.9994
7857	O=C	526	TMC3	O2	1	-0.57	15.9994
7858	CB	527	MPD2	C	1	-0.15	12.011
7859	CB	527	MPD2	C1	1	0.117	12.011
7860	CB	527	MPD2	C2	1	-0.15	12.011
7861	CB	527	MPD2	C3	1	0.117	12.011
7862	CB	527	MPD2	C4	1	-0.15	12.011
7863	CB	527	MPD2	C5	1	-0.15	12.011
7864	HCMM	527	MPD2	H	1	0.15	1.0079
7865	HCMM	527	MPD2	H1	1	0.15	1.0079
7866	HCMM	527	MPD2	H2	1	0.15	1.0079
7867	HCMM	527	MPD2	H3	1	0.15	1.0079
7868	NC=O	527	MPD2	N	1	-0.547	14.0067
7869	HNCO	527	MPD2	H5	1	0.37	1.0079
7870	NC=O	527	MPD2	N1	1	-0.547	14.0067
7871	HNCO	527	MPD2	H7	1	0.37	1.0079
7872	CB	528	TMC3	C1	1	0.0862	12.011
7873	CB	528	TMC3	C2	1	-0.15	12.011
7874	CB	528	TMC3	C3	1	0.0862	12.011
7875	CB	528	TMC3	C4	1	-0.15	12.011
7876	CB	528	TMC3	C5	1	0.0862	12.011
7877	CB	528	TMC3	C6	1	-0.15	12.011
7878	C=O	528	TMC3	C	1	0.5438	12.011
7879	O=C	528	TMC3	O	1	-0.57	15.9994
7880	HCMM	528	TMC3	H	1	0.15	1.0079
7881	HCMM	528	TMC3	H1	1	0.15	1.0079
7882	HCMM	528	TMC3	H2	1	0.15	1.0079
7883	C=O	528	TMC3	C7	1	0.5438	12.011
7884	C=O	528	TMC3	C8	1	0.5438	12.011
7885	O=C	528	TMC3	O1	1	-0.57	15.9994
7886	O=C	528	TMC3	O2	1	-0.57	15.9994
7887	CB	529	MPD2	C	1	-0.15	12.011
7888	CB	529	MPD2	C1	1	0.117	12.011
7889	CB	529	MPD2	C2	1	-0.15	12.011
7890	CB	529	MPD2	C3	1	0.117	12.011
7891	CB	529	MPD2	C4	1	-0.15	12.011
7892	CB	529	MPD2	C5	1	-0.15	12.011
7893	HCMM	529	MPD2	H	1	0.15	1.0079
7894	HCMM	529	MPD2	H1	1	0.15	1.0079
7895	HCMM	529	MPD2	H2	1	0.15	1.0079
7896	HCMM	529	MPD2	H3	1	0.15	1.0079
7897	NC=O	529	MPD2	N	1	-0.547	14.0067
7898	HNCO	529	MPD2	H5	1	0.37	1.0079
7899	NC=O	529	MPD2	N1	1	-0.547	14.0067
7900	HNCO	529	MPD2	H7	1	0.37	1.0079
7901	CB	530	TMC3	C1	1	0.0862	12.011
7902	CB	530	TMC3	C2	1	-0.15	12.011
7903	CB	530	TMC3	C3	1	0.0862	12.011
7904	CB	530	TMC3	C4	1	-0.15	12.011
7905	CB	530	TMC3	C5	1	0.0862	12.011
7906	CB	530	TMC3	C6	1	-0.15	12.011
7907	C=O	530	TMC3	C	1	0.5438	12.011
7908	O=C	530	TMC3	O	1	-0.57	15.9994
7909	HCMM	530	TMC3	H	1	0.15	1.0079
7910	HCMM	530	TMC3	H1	1	0.15	1.0079
7911	HCMM	530	TMC3	H2	1	0.15	1.0079
7912	C=O	530	TMC3	C7	1	0.5438	12.011
7913	C=O	530	TMC3	C8	1	0.5438	12.011
7914	O=C	530	TMC3	O1	1	-0.57	15.9994
7915	O=C	530	TMC3	O2	1	-0.57	15.9994
7916	CB	531	MPD2	C	1	-0.15	12.011
7917	CB	531	MPD2	C1	1	0.117	12.011
7918	CB	531	MPD2	C2	1	-0.15	12.011
7919	CB	531	MPD2	C3	1	0.117	12.011
7920	CB	531	MPD2	C4	1	-0.15	12.011
7921	CB	531	MPD2	C5	1	-0.15	12.011
7922	HCMM	531	MPD2	H	1	0.15	1.0079
7923	HCMM	531	MPD2	H1	1	0.15	1.0079
7924	HCMM	531	MPD2	H2	1	0.15	1.0079
7925	HCMM	531	MPD2	H3	1	0.15	1.0079
7926	NC=O	531	MPD2	N	1	-0.547	14.0067
7927	HNCO	531	MPD2	H5	1	0.37	1.0079
7928	NC=O	531	MPD2	N1	1	-0.547	14.0067
7929	HNCO	531	MPD2	H7	1	0.37	1.0079
7930	CB	532	TMC3	C1	1	0.0862	12.011
7931	CB	532	TMC3	C2	1	-0.15	12.011
7932	CB	532	TMC3	C3	1	0.0862	12.011
7933	CB	532	TMC3	C4	1	-0.15	12.011
7934	CB	532	TMC3	C5	1	0.0862	12.011
7935	CB	532	TMC3	C6	1	-0.15	12.011
7936	C=O	532	TMC3	C	1	0.5438	12.011
7937	O=C	532	TMC3	O	1	-0.57	15.9994
7938	HCMM	532	TMC3	H	1	0.15	1.0079
7939	HCMM	532	TMC3	H1	1	0.15	1.0079
7940	HCMM	532	TMC3	H2	1	0.15	1.0079
7941	C=O	532	TMC3	C7	1	0.5438	12.011
7942	C=O	532	TMC3	C8	1	0.5438	12.011
7943	O=C	532	TMC3	O1	1	-0.57	15.9994
7944	O=C	532	TMC3	O2	1	-0.57	15.9994
7945	CB	533	TMC3	C1	1	0.0862	12.011
7946	CB	533	TMC3	C2	1	-0.15	12.011
7947	CB	533	TMC3	C3	1	0.0862	12.011
7948	CB	533	TMC3	C4	1	-0.15	12.011
7949	CB	533	TMC3	C5	1	0.0862	12.011
7950	CB	533	TMC3	C6	1	-0.15	12.011
7951	C=O	533	TMC3	C	1	0.5438	12.011
7952	O=C	533	TMC3	O	1	-0.57	15.9994
7953	HCMM	533	TMC3	H	1	0.15	1.0079
7954	HCMM	533	TMC3	H1	1	0.15	1.0079
7955	HCMM	533	TMC3	H2	1	0.15	1.0079
7956	C=O	533	TMC3	C7	1	0.5438	12.011
7957	C=O	533	TMC3	C8	1	0.5438	12.011
7958	O=C	533	TMC3	O1	1	-0.57	15.9994
7959	O=C	533	TMC3	O2	1	-0.57	15.9994
7960	CB	534	MPD2	C	1	-0.15	12.011
7961	CB	534	MPD2	C1	1	0.117	12.011
7962	CB	534	MPD2	C2	1	-0.15	12.011
7963	CB	534	MPD2	C3	1	0.117	12.011
7964	CB	534	MPD2	C4	1	-0.15	12.011
7965	CB	534	MPD2	C5	1	-0.15	12.011
7966	HCMM	534	MPD2	H	1	0.15	1.0079
7967	HCMM	534	MPD2	H1	1	0.15	1.0079
7968	HCMM	534	MPD2	H2	1	0.15	1.0079
7969	HCMM	534	MPD2	H3	1	0.15	1.0079
7970	NC=O	534	MPD2	N	1	-0.547	14.0067
7971	HNCO	534	MPD2	H5	1	0.37	1.0079
7972	NC=O	534	MPD2	N1	1	-0.547	14.0067
7973	HNCO	534	MPD2	H7	1	0.37	1.0079
7974	CB	535	TMC3	C1	1	0.0862	12.011
7975	CB	535	TMC3	C2	1	-0.15	12.011
7976	CB	535	TMC3	C3	1	0.0862	12.011
7977	CB	535	TMC3	C4	1	-0.15	12.011
7978	CB	535	TMC3	C5	1	0.0862	12.011
7979	CB	535	TMC3	C6	1	-0.15	12.011
7980	C=O	535	TMC3	C	1	0.5438	12.011
7981	O=C	535	TMC3	O	1	-0.57	15.9994
7982	HCMM	535	TMC3	H	1	0.15	1.0079
7983	HCMM	535	TMC3	H1	1	0.15	1.0079
7984	HCMM	535	TMC3	H2	1	0.15	1.0079
7985	C=O	535	TMC3	C7	1	0.5438	12.011
7986	C=O	535	TMC3	C8	1	0.5438	12.011
7987	O=C	535	TMC3	O1	1	-0.57	15.9994
7988	O=C	535	TMC3	O2	1	-0.57	15.9994
7989	CB	536	MPD2	C	1	-0.15	12.011
7990	CB	536	MPD2	C1	1	0.117	12.011
7991	CB	536	MPD2	C2	1	-0.15	12.011
7992	CB	536	MPD2	C3	1	0.117	12.011
7993	CB	536	MPD2	C4	1	-0.15	12.011
7994	CB	536	MPD2	C5	1	-0.15	12.011
7995	HCMM	536	MPD2	H	1	0.15	1.0079
7996	HCMM	536	MPD2	H1	1	0.15	1.0079
7997	HCMM	536	MPD2	H2	1	0.15	1.0079
7998	HCMM	536	MPD2	H3	1	0.15	1.0079
7999	NC=O	536	MPD2	N	1	-0.547	14.0067
8000	HNCO	536	MPD2	H5	1	0.37	1.0079
8001	NC=O	536	MPD2	N1	1	-0.547	14.0067
8002	HNCO	536	MPD2	H7	1	0.37	1.0079
8003	CB	537	TMC3	C1	1	0.0862	12.011
8004	CB	537	TMC3	C2	1	-0.15	12.011
8005	CB	537	TMC3	C3	1	0.0862	12.011
8006	CB	537	TMC3	C4	1	-0.15	12.011
8007	CB	537	TMC3	C5	1	0.0862	12.011
8008	CB	537	TMC3	C6	1	-0.15	12.011
8009	C=O	537	TMC3	C	1	0.5438	12.011
8010	O=C	537	TMC3	O	1	-0.57	15.9994
8011	HCMM	537	TMC3	H	1	0.15	1.0079
8012	HCMM	537	TMC3	H1	1	0.15	1.0079
8013	HCMM	537	TMC3	H2	1	0.15	1.0079
8014	C=O	537	TMC3	C7	1	0.5438	12.011
8015	C=O	537	TMC3	C8	1	0.5438	12.011
8016	O=C	537	TMC3	O1	1	-0.57	15.9994
8017	O=C	537	TMC3	O2	1	-0.57	15.9994
8018	CB	538	TMC3	C1	1	0.0862	12.011
8019	CB	538	TMC3	C2	1	-0.15	12.011
8020	CB	538	TMC3	C3	1	0.0862	12.011
8021	CB	538	TMC3	C4	1	-0.15	12.011
8022	CB	538	TMC3	C5	1	0.0862	12.011
8023	CB	538	TMC3	C6	1	-0.15	12.011
8024	C=O	538	TMC3	C	1	0.5438	12.011
8025	O=C	538	TMC3	O	1	-0.57	15.9994
8026	HCMM	538	TMC3	H	1	0.15	1.0079
8027	HCMM	538	TMC3	H1	1	0.15	1.0079
8028	HCMM	538	TMC3	H2	1	0.15	1.0079
8029	C=O	538	TMC3	C7	1	0.5438	12.011
8030	C=O	538	TMC3	C8	1	0.5438	12.011
8031	O=C	538	TMC3	O1	1	-0.57	15.9994
8032	O=C	538	TMC3	O2	1	-0.57	15.9994
8033	CB	539	MPD2	C	1	-0.15	12.011
8034	CB	539	MPD2	C1	1	0.117	12.011
8035	CB	539	MPD2	C2	1	-0.15	12.011
8036	CB	539	MPD2	C3	1	0.117	12.011
8037	CB	539	MPD2	C4	1	-0.15	12.011
8038	CB	539	MPD2	C5	1	-0.15	12.011
8039	HCMM	539	MPD2	H	1	0.15	1.0079
8040	HCMM	539	MPD2	H1	1	0.15	1.0079
8041	HCMM	539	MPD2	H2	1	0.15	1.0079
8042	HCMM	539	MPD2	H3	1	0.15	1.0079
8043	NC=O	539	MPD2	N	1	-0.547	14.0067
8044	HNCO	539	MPD2	H5	1	0.37	1.0079
8045	NC=O	539	MPD2	N1	1	-0.547	14.0067
8046	HNCO	539	MPD2	H7	1	0.37	1.0079
8047	CB	540	TMC3	C1	1	0.0862	12.011
8048	CB	540	TMC3	C2	1	-0.15	12.011
8049	CB	540	TMC3	C3	1	0.0862	12.011
8050	CB	540	TMC3	C4	1	-0.15	12.011
8051	CB	540	TMC3	C5	1	0.0862	12.011
8052	CB	540	TMC3	C6	1	-0.15	12.011
8053	C=O	540	TMC3	C	1	0.5438	12.011
8054	O=C	540	TMC3	O	1	-0.57	15.9994
8055	HCMM	540	TMC3	H	1	0.15	1.0079
8056	HCMM	540	TMC3	H1	1	0.15	1.0079
8057	HCMM	540	TMC3	H2	1	0.15	1.0079
8058	C=O	540	TMC3	C7	1	0.5438	12.011
8059	C=O	540	TMC3	C8	1	0.5438	12.011
8060	O=C	540	TMC3	O1	1	-0.57	15.9994
8061	O=C	540	TMC3	O2	1	-0.57	15.9994
8062	CB	541	MPD2	C	1	-0.15	12.011
8063	CB	541	MPD2	C1	1	0.117	12.011
8064	CB	541	MPD2	C2	1	-0.15	12.011
8065	CB	541	MPD2	C3	1	0.117	12.011
8066	CB	541	MPD2	C4	1	-0.15	12.011
8067	CB	541	MPD2	C5	1	-0.15	12.011
8068	HCMM	541	MPD2	H	1	0.15	1.0079
8069	HCMM	541	MPD2	H1	1	0.15	1.0079
8070	HCMM	541	MPD2	H2	1	0.15	1.0079
8071	HCMM	541	MPD2	H3	1	0.15	1.0079
8072	NC=O	541	MPD2	N	1	-0.547	14.0067
8073	HNCO	541	MPD2	H5	1	0.37	1.0079
8074	NC=O	541	MPD2	N1	1	-0.547	14.0067
8075	HNCO	541	MPD2	H7	1	0.37	1.0079
8076	CB	542	TMC3	C1	1	0.0862	12.011
8077	CB	542	TMC3	C2	1	-0.15	12.011
8078	CB	542	TMC3	C3	1	0.0862	12.011
8079	CB	542	TMC3	C4	1	-0.15	12.011
8080	CB	542	TMC3	C5	1	0.0862	12.011
8081	CB	542	TMC3	C6	1	-0.15	12.011
8082	C=O	542	TMC3	C	1	0.5438	12.011
8083	O=C	542	TMC3	O	1	-0.57	15.9994
8084	HCMM	542	TMC3	H	1	0.15	1.0079
8085	HCMM	542	TMC3	H1	1	0.15	1.0079
8086	HCMM	542	TMC3	H2	1	0.15	1.0079
8087	C=O	542	TMC3	C7	1	0.5438	12.011
8088	C=O	542	TMC3	C8	1	0.5438	12.011
8089	O=C	542	TMC3	O1	1	-0.57	15.9994
8090	O=C	542	TMC3	O2	1	-0.57	15.9994
8091	CB	543	TMC3	C1	1	0.0862	12.011
8092	CB	543	TMC3	C2	1	-0.15	12.011
8093	CB	543	TMC3	C3	1	0.0862	12.011
8094	CB	543	TMC3	C4	1	-0.15	12.011
8095	CB	543	TMC3	C5	1	0.0862	12.011
8096	CB	543	TMC3	C6	1	-0.15	12.011
8097	C=O	543	TMC3	C	1	0.5438	12.011
8098	O=C	543	TMC3	O	1	-0.57	15.9994
8099	HCMM	543	TMC3	H	1	0.15	1.0079
8100	HCMM	543	TMC3	H1	1	0.15	1.0079
8101	HCMM	543	TMC3	H2	1	0.15	1.0079
8102	C=O	543	TMC3	C7	1	0.5438	12.011
8103	C=O	543	TMC3	C8	1	0.5438	12.011
8104	O=C	543	TMC3	O1	1	-0.57	15.9994
8105	O=C	543	TMC3	O2	1	-0.57	15.9994
8106	CB	544	MPD2	C	1	-0.15	12.011
8107	CB	544	MPD2	C1	1	0.117	12.011
8108	CB	544	MPD2	C2	1	-0.15	12.011
8109	CB	544	MPD2	C3	1	0.117	12.011
8110	CB	544	MPD2	C4	1	-0.15	12.011
8111	CB	544	MPD2	C5	1	-0.15	12.011
8112	HCMM	544	MPD2	H	1	0.15	1.0079
8113	HCMM	544	MPD2	H1	1	0.15	1.0079
8114	HCMM	544	MPD2	H2	1	0.15	1.0079
8115	HCMM	544	MPD2	H3	1	0.15	1.0079
8116	NC=O	544	MPD2	N	1	-0.547	14.0067
8117	HNCO	544	MPD2	H5	1	0.37	1.0079
8118	NC=O	544	MPD2	N1	1	-0.547	14.0067
8119	HNCO	544	MPD2	H7	1	0.37	1.0079
8120	CB	545	TMC3	C1	1	0.0862	12.011
8121	CB	545	TMC3	C2	1	-0.15	12.011
8122	CB	545	TMC3	C3	1	0.0862	12.011
8123	CB	545	TMC3	C4	1	-0.15	12.011
8124	CB	545	TMC3	C5	1	0.0862	12.011
8125	CB	545	TMC3	C6	1	-0.15	12.011
8126	C=O	545	TMC3	C	1	0.5438	12.011
8127	O=C	545	TMC3	O	1	-0.57	15.9994
8128	HCMM	545	TMC3	H	1	0.15	1.0079
8129	HCMM	545	TMC3	H1	1	0.15	1.0079
8130	HCMM	545	TMC3	H2	1	0.15	1.0079
8131	C=O	545	TMC3	C7	1	0.5438	12.011
8132	C=O	545	TMC3	C8	1	0.5438	12.011
8133	O=C	545	TMC3	O1	1	-0.57	15.9994
8134	O=C	545	TMC3	O2	1	-0.57	15.9994
8135	CB	546	MPD2	C	1	-0.15	12.011
8136	CB	546	MPD2	C1	1	0.117	12.011
8137	CB	546	MPD2	C2	1	-0.15	12.011
8138	CB	546	MPD2	C3	1	0.117	12.011
8139	CB	546	MPD2	C4	1	-0.15	12.011
8140	CB	546	MPD2	C5	1	-0.15	12.011
8141	HCMM	546	MPD2	H	1	0.15	1.0079
8142	HCMM	546	MPD2	H1	1	0.15	1.0079
8143	HCMM	546	MPD2	H2	1	0.15	1.0079
8144	HCMM	546	MPD2	H3	1	0.15	1.0079
8145	NC=O	546	MPD2	N	1	-0.547	14.0067
8146	HNCO	546	MPD2	H5	1	0.37	1.0079
8147	NC=O	546	MPD2	N1	1	-0.547	14.0067
8148	HNCO	546	MPD2	H7	1	0.37	1.0079
8149	CB	547	TMC3	C1	1	0.0862	12.011
8150	CB	547	TMC3	C2	1	-0.15	12.011
8151	CB	547	TMC3	C3	1	0.0862	12.011
8152	CB	547	TMC3	C4	1	-0.15	12.011
8153	CB	547	TMC3	C5	1	0.0862	12.011
8154	CB	547	TMC3	C6	1	-0.15	12.011
8155	C=O	547	TMC3	C	1	0.5438	12.011
8156	O=C	547	TMC3	O	1	-0.57	15.9994
8157	HCMM	547	TMC3	H	1	0.15	1.0079
8158	HCMM	547	TMC3	H1	1	0.15	1.0079
8159	HCMM	547	TMC3	H2	1	0.15	1.0079
8160	C=O	547	TMC3	C7	1	0.5438	12.011
8161	C=O	547	TMC3	C8	1	0.5438	12.011
8162	O=C	547	TMC3	O1	1	-0.57	15.9994
8163	O=C	547	TMC3	O2	1	-0.57	15.9994
8164	CB	548	MPD2	C	1	-0.15	12.011
8165	CB	548	MPD2	C1	1	0.117	12.011
8166	CB	548	MPD2	C2	1	-0.15	12.011
8167	CB	548	MPD2	C3	1	0.117	12.011
8168	CB	548	MPD2	C4	1	-0.15	12.011
8169	CB	548	MPD2	C5	1	-0.15	12.011
8170	HCMM	548	MPD2	H	1	0.15	1.0079
8171	HCMM	548	MPD2	H1	1	0.15	1.0079
8172	HCMM	548	MPD2	H2	1	0.15	1.0079
8173	HCMM	548	MPD2	H3	1	0.15	1.0079
8174	NC=O	548	MPD2	N	1	-0.547	14.0067
8175	HNCO	548	MPD2	H5	1	0.37	1.0079
8176	NC=O	548	MPD2	N1	1	-0.547	14.0067
8177	HNCO	548	MPD2	H7	1	0.37	1.0079
8178	CB	549	TMC3	C1	1	0.0862	12.011
8179	CB	549	TMC3	C2	1	-0.15	12.011
8180	CB	549	TMC3	C3	1	0.0862	12.011
8181	CB	549	TMC3	C4	1	-0.15	12.011
8182	CB	549	TMC3	C5	1	0.0862	12.011
8183	CB	549	TMC3	C6	1	-0.15	12.011
8184	C=O	549	TMC3	C	1	0.5438	12.011
8185	O=C	549	TMC3	O	1	-0.57	15.9994
8186	HCMM	549	TMC3	H	1	0.15	1.0079
8187	HCMM	549	TMC3	H1	1	0.15	1.0079
8188	HCMM	549	TMC3	H2	1	0.15	1.0079
8189	C=O	549	TMC3	C7	1	0.5438	12.011
8190	C=O	549	TMC3	C8	1	0.5438	12.011
8191	O=C	549	TMC3	O1	1	-0.57	15.9994
8192	O=C	549	TMC3	O2	1	-0.57	15.9994
8193	CB	550	TMC3	C1	1	0.0862	12.011
8194	CB	550	TMC3	C2	1	-0.15	12.011
8195	CB	550	TMC3	C3	1	0.0862	12.011
8196	CB	550	TMC3	C4	1	-0.15	12.011
8197	CB	550	TMC3	C5	1	0.0862	12.011
8198	CB	550	TMC3	C6	1	-0.15	12.011
8199	C=O	550	TMC3	C	1	0.5438	12.011
8200	O=C	550	TMC3	O	1	-0.57	15.9994
8201	HCMM	550	TMC3	H	1	0.15	1.0079
8202	HCMM	550	TMC3	H1	1	0.15	1.0079
8203	HCMM	550	TMC3	H2	1	0.15	1.0079
8204	C=O	550	TMC3	C7	1	0.5438	12.011
8205	C=O	550	TMC3	C8	1	0.5438	12.011
8206	O=C	550	TMC3	O1	1	-0.57	15.9994
8207	O=C	550	TMC3	O2	1	-0.57	15.9994
8208	CB	551	TMC3	C1	1	0.0862	12.011
8209	CB	551	TMC3	C2	1	-0.15	12.011
8210	CB	551	TMC3	C3	1	0.0862	12.011
8211	CB	551	TMC3	C4	1	-0.15	12.011
8212	CB	551	TMC3	C5	1	0.0862	12.011
8213	CB	551	TMC3	C6	1	-0.15	12.011
8214	C=O	551	TMC3	C	1	0.5438	12.011
8215	O=C	551	TMC3	O	1	-0.57	15.9994
8216	HCMM	551	TMC3	H	1	0.15	1.0079
8217	HCMM	551	TMC3	H1	1	0.15	1.0079
8218	HCMM	551	TMC3	H2	1	0.15	1.0079
8219	C=O	551	TMC3	C7	1	0.5438	12.011
8220	C=O	551	TMC3	C8	1	0.5438	12.011
8221	O=C	551	TMC3	O1	1	-0.57	15.9994
8222	O=C	551	TMC3	O2	1	-0.57	15.9994
8223	CB	552	MPD2	C	1	-0.15	12.011
8224	CB	552	MPD2	C1	1	0.117	12.011
8225	CB	552	MPD2	C2	1	-0.15	12.011
8226	CB	552	MPD2	C3	1	0.117	12.011
8227	CB	552	MPD2	C4	1	-0.15	12.011
8228	CB	552	MPD2	C5	1	-0.15	12.011
8229	HCMM	552	MPD2	H	1	0.15	1.0079
8230	HCMM	552	MPD2	H1	1	0.15	1.0079
8231	HCMM	552	MPD2	H2	1	0.15	1.0079
8232	HCMM	552	MPD2	H3	1	0.15	1.0079
8233	NC=O	552	MPD2	N	1	-0.547	14.0067
8234	HNCO	552	MPD2	H5	1	0.37	1.0079
8235	NC=O	552	MPD2	N1	1	-0.547	14.0067
8236	HNCO	552	MPD2	H7	1	0.37	1.0079
8237	CB	553	TMC3	C1	1	0.0862	12.011
8238	CB	553	TMC3	C2	1	-0.15	12.011
8239	CB	553	TMC3	C3	1	0.0862	12.011
8240	CB	553	TMC3	C4	1	-0.15	12.011
8241	CB	553	TMC3	C5	1	0.0862	12.011
8242	CB	553	TMC3	C6	1	-0.15	12.011
8243	C=O	553	TMC3	C	1	0.5438	12.011
8244	O=C	553	TMC3	O	1	-0.57	15.9994
8245	HCMM	553	TMC3	H	1	0.15	1.0079
8246	HCMM	553	TMC3	H1	1	0.15	1.0079
8247	HCMM	553	TMC3	H2	1	0.15	1.0079
8248	C=O	553	TMC3	C7	1	0.5438	12.011
8249	C=O	553	TMC3	C8	1	0.5438	12.011
8250	O=C	553	TMC3	O1	1	-0.57	15.9994
8251	O=C	553	TMC3	O2	1	-0.57	15.9994
8252	CB	554	TMC3	C1	1	0.0862	12.011
8253	CB	554	TMC3	C2	1	-0.15	12.011
8254	CB	554	TMC3	C3	1	0.0862	12.011
8255	CB	554	TMC3	C4	1	-0.15	12.011
8256	CB	554	TMC3	C5	1	0.0862	12.011
8257	CB	554	TMC3	C6	1	-0.15	12.011
8258	C=O	554	TMC3	C	1	0.5438	12.011
8259	O=C	554	TMC3	O	1	-0.57	15.9994
8260	HCMM	554	TMC3	H	1	0.15	1.0079
8261	HCMM	554	TMC3	H1	1	0.15	1.0079
8262	HCMM	554	TMC3	H2	1	0.15	1.0079
8263	C=O	554	TMC3	C7	1	0.5438	12.011
8264	C=O	554	TMC3	C8	1	0.5438	12.011
8265	O=C	554	TMC3	O1	1	-0.57	15.9994
8266	O=C	554	TMC3	O2	1	-0.57	15.9994
8267	CB	555	TMC3	C1	1	0.0862	12.011
8268	CB	555	TMC3	C2	1	-0.15	12.011
8269	CB	555	TMC3	C3	1	0.0862	12.011
8270	CB	555	TMC3	C4	1	-0.15	12.011
8271	CB	555	TMC3	C5	1	0.0862	12.011
8272	CB	555	TMC3	C6	1	-0.15	12.011
8273	C=O	555	TMC3	C	1	0.5438	12.011
8274	O=C	555	TMC3	O	1	-0.57	15.9994
8275	HCMM	555	TMC3	H	1	0.15	1.0079
8276	HCMM	555	TMC3	H1	1	0.15	1.0079
8277	HCMM	555	TMC3	H2	1	0.15	1.0079
8278	C=O	555	TMC3	C7	1	0.5438	12.011
8279	C=O	555	TMC3	C8	1	0.5438	12.011
8280	O=C	555	TMC3	O1	1	-0.57	15.9994
8281	O=C	555	TMC3	O2	1	-0.57	15.9994
8282	CB	556	MPD2	C	1	-0.15	12.011
8283	CB	556	MPD2	C1	1	0.117	12.011
8284	CB	556	MPD2	C2	1	-0.15	12.011
8285	CB	556	MPD2	C3	1	0.117	12.011
8286	CB	556	MPD2	C4	1	-0.15	12.011
8287	CB	556	MPD2	C5	1	-0.15	12.011
8288	HCMM	556	MPD2	H	1	0.15	1.0079
8289	HCMM	556	MPD2	H1	1	0.15	1.0079
8290	HCMM	556	MPD2	H2	1	0.15	1.0079
8291	HCMM	556	MPD2	H3	1	0.15	1.0079
8292	NC=O	556	MPD2	N	1	-0.547	14.0067
8293	HNCO	556	MPD2	H5	1	0.37	1.0079
8294	NC=O	556	MPD2	N1	1	-0.547	14.0067
8295	HNCO	556	MPD2	H7	1	0.37	1.0079
8296	CB	557	TMC3	C1	1	0.0862	12.011
8297	CB	557	TMC3	C2	1	-0.15	12.011
8298	CB	557	TMC3	C3	1	0.0862	12.011
8299	CB	557	TMC3	C4	1	-0.15	12.011
8300	CB	557	TMC3	C5	1	0.0862	12.011
8301	CB	557	TMC3	C6	1	-0.15	12.011
8302	C=O	557	TMC3	C	1	0.5438	12.011
8303	O=C	557	TMC3	O	1	-0.57	15.9994
8304	HCMM	557	TMC3	H	1	0.15	1.0079
8305	HCMM	557	TMC3	H1	1	0.15	1.0079
8306	HCMM	557	TMC3	H2	1	0.15	1.0079
8307	C=O	557	TMC3	C7	1	0.5438	12.011
8308	C=O	557	TMC3	C8	1	0.5438	12.011
8309	O=C	557	TMC3	O1	1	-0.57	15.9994
8310	O=C	557	TMC3	O2	1	-0.57	15.9994
8311	CB	558	TMC3	C1	1	0.0862	12.011
8312	CB	558	TMC3	C2	1	-0.15	12.011
8313	CB	558	TMC3	C3	1	0.0862	12.011
8314	CB	558	TMC3	C4	1	-0.15	12.011
8315	CB	558	TMC3	C5	1	0.0862	12.011
8316	CB	558	TMC3	C6	1	-0.15	12.011
8317	C=O	558	TMC3	C	1	0.5438	12.011
8318	O=C	558	TMC3	O	1	-0.57	15.9994
8319	HCMM	558	TMC3	H	1	0.15	1.0079
8320	HCMM	558	TMC3	H1	1	0.15	1.0079
8321	HCMM	558	TMC3	H2	1	0.15	1.0079
8322	C=O	558	TMC3	C7	1	0.5438	12.011
8323	C=O	558	TMC3	C8	1	0.5438	12.011
8324	O=C	558	TMC3	O1	1	-0.57	15.9994
8325	O=C	558	TMC3	O2	1	-0.57	15.9994
8326	CB	559	MPD2	C	1	-0.15	12.011
8327	CB	559	MPD2	C1	1	0.117	12.011
8328	CB	559	MPD2	C2	1	-0.15	12.011
8329	CB	559	MPD2	C3	1	0.117	12.011
8330	CB	559	MPD2	C4	1	-0.15	12.011
8331	CB	559	MPD2	C5	1	-0.15	12.011
8332	HCMM	559	MPD2	H	1	0.15	1.0079
8333	HCMM	559	MPD2	H1	1	0.15	1.0079
8334	HCMM	559	MPD2	H2	1	0.15	1.0079
8335	HCMM	559	MPD2	H3	1	0.15	1.0079
8336	NC=O	559	MPD2	N	1	-0.547	14.0067
8337	HNCO	559	MPD2	H5	1	0.37	1.0079
8338	NC=O	559	MPD2	N1	1	-0.547	14.0067
8339	HNCO	559	MPD2	H7	1	0.37	1.0079
8340	CB	560	TMC3	C1	1	0.0862	12.011
8341	CB	560	TMC3	C2	1	-0.15	12.011
8342	CB	560	TMC3	C3	1	0.0862	12.011
8343	CB	560	TMC3	C4	1	-0.15	12.011
8344	CB	560	TMC3	C5	1	0.0862	12.011
8345	CB	560	TMC3	C6	1	-0.15	12.011
8346	C=O	560	TMC3	C	1	0.5438	12.011
8347	O=C	560	TMC3	O	1	-0.57	15.9994
8348	HCMM	560	TMC3	H	1	0.15	1.0079
8349	HCMM	560	TMC3	H1	1	0.15	1.0079
8350	HCMM	560	TMC3	H2	1	0.15	1.0079
8351	C=O	560	TMC3	C7	1	0.5438	12.011
8352	C=O	560	TMC3	C8	1	0.5438	12.011
8353	O=C	560	TMC3	O1	1	-0.57	15.9994
8354	O=C	560	TMC3	O2	1	-0.57	15.9994
8355	CB	561	TMC3	C1	1	0.0862	12.011
8356	CB	561	TMC3	C2	1	-0.15	12.011
8357	CB	561	TMC3	C3	1	0.0862	12.011
8358	CB	561	TMC3	C4	1	-0.15	12.011
8359	CB	561	TMC3	C5	1	0.0862	12.011
8360	CB	561	TMC3	C6	1	-0.15	12.011
8361	C=O	561	TMC3	C	1	0.5438	12.011
8362	O=C	561	TMC3	O	1	-0.57	15.9994
8363	HCMM	561	TMC3	H	1	0.15	1.0079
8364	HCMM	561	TMC3	H1	1	0.15	1.0079
8365	HCMM	561	TMC3	H2	1	0.15	1.0079
8366	C=O	561	TMC3	C7	1	0.5438	12.011
8367	C=O	561	TMC3	C8	1	0.5438	12.011
8368	O=C	561	TMC3	O1	1	-0.57	15.9994
8369	O=C	561	TMC3	O2	1	-0.57	15.9994
8370	CB	562	TMC3	C1	1	0.0862	12.011
8371	CB	562	TMC3	C2	1	-0.15	12.011
8372	CB	562	TMC3	C3	1	0.0862	12.011
8373	CB	562	TMC3	C4	1	-0.15	12.011
8374	CB	562	TMC3	C5	1	0.0862	12.011
8375	CB	562	TMC3	C6	1	-0.15	12.011
8376	C=O	562	TMC3	C	1	0.5438	12.011
8377	O=C	562	TMC3	O	1	-0.57	15.9994
8378	HCMM	562	TMC3	H	1	0.15	1.0079
8379	HCMM	562	TMC3	H1	1	0.15	1.0079
8380	HCMM	562	TMC3	H2	1	0.15	1.0079
8381	C=O	562	TMC3	C7	1	0.5438	12.011
8382	C=O	562	TMC3	C8	1	0.5438	12.011
8383	O=C	562	TMC3	O1	1	-0.57	15.9994
8384	O=C	562	TMC3	O2	1	-0.57	15.9994
8385	CB	563	MPD2	C	1	-0.15	12.011
8386	CB	563	MPD2	C1	1	0.117	12.011
8387	CB	563	MPD2	C2	1	-0.15	12.011
8388	CB	563	MPD2	C3	1	0.117	12.011
8389	CB	563	MPD2	C4	1	-0.15	12.011
8390	CB	563	MPD2	C5	1	-0.15	12.011
8391	HCMM	563	MPD2	H	1	0.15	1.0079
8392	HCMM	563	MPD2	H1	1	0.15	1.0079
8393	HCMM	563	MPD2	H2	1	0.15	1.0079
8394	HCMM	563	MPD2	H3	1	0.15	1.0079
8395	NC=O	563	MPD2	N	1	-0.547	14.0067
8396	HNCO	563	MPD2	H5	1	0.37	1.0079
8397	NC=O	563	MPD2	N1	1	-0.547	14.0067
8398	HNCO	563	MPD2	H7	1	0.37	1.0079
8399	CB	564	TMC3	C1	1	0.0862	12.011
8400	CB	564	TMC3	C2	1	-0.15	12.011
8401	CB	564	TMC3	C3	1	0.0862	12.011
8402	CB	564	TMC3	C4	1	-0.15	12.011
8403	CB	564	TMC3	C5	1	0.0862	12.011
8404	CB	564	TMC3	C6	1	-0.15	12.011
8405	C=O	564	TMC3	C	1	0.5438	12.011
8406	O=C	564	TMC3	O	1	-0.57	15.9994
8407	HCMM	564	TMC3	H	1	0.15	1.0079
8408	HCMM	564	TMC3	H1	1	0.15	1.0079
8409	HCMM	564	TMC3	H2	1	0.15	1.0079
8410	C=O	564	TMC3	C7	1	0.5438	12.011
8411	C=O	564	TMC3	C8	1	0.5438	12.011
8412	O=C	564	TMC3	O1	1	-0.57	15.9994
8413	O=C	564	TMC3	O2	1	-0.57	15.9994
8414	CB	565	TMC3	C1	1	0.0862	12.011
8415	CB	565	TMC3	C2	1	-0.15	12.011
8416	CB	565	TMC3	C3	1	0.0862	12.011
8417	CB	565	TMC3	C4	1	-0.15	12.011
8418	CB	565	TMC3	C5	1	0.0862	12.011
8419	CB	565	TMC3	C6	1	-0.15	12.011
8420	C=O	565	TMC3	C	1	0.5438	12.011
8421	O=C	565	TMC3	O	1	-0.57	15.9994
8422	HCMM	565	TMC3	H	1	0.15	1.0079
8423	HCMM	565	TMC3	H1	1	0.15	1.0079
8424	HCMM	565	TMC3	H2	1	0.15	1.0079
8425	C=O	565	TMC3	C7	1	0.5438	12.011
8426	C=O	565	TMC3	C8	1	0.5438	12.011
8427	O=C	565	TMC3	O1	1	-0.57	15.9994
8428	O=C	565	TMC3	O2	1	-0.57	15.9994
8429	CB	566	MPD2	C	1	-0.15	12.011
8430	CB	566	MPD2	C1	1	0.117	12.011
8431	CB	566	MPD2	C2	1	-0.15	12.011
8432	CB	566	MPD2	C3	1	0.117	12.011
8433	CB	566	MPD2	C4	1	-0.15	12.011
8434	CB	566	MPD2	C5	1	-0.15	12.011
8435	HCMM	566	MPD2	H	1	0.15	1.0079
8436	HCMM	566	MPD2	H1	1	0.15	1.0079
8437	HCMM	566	MPD2	H2	1	0.15	1.0079
8438	HCMM	566	MPD2	H3	1	0.15	1.0079
8439	NC=O	566	MPD2	N	1	-0.547	14.0067
8440	HNCO	566	MPD2	H5	1	0.37	1.0079
8441	NC=O	566	MPD2	N1	1	-0.547	14.0067
8442	HNCO	566	MPD2	H7	1	0.37	1.0079
8443	CB	567	TMC3	C1	1	0.0862	12.011
8444	CB	567	TMC3	C2	1	-0.15	12.011
8445	CB	567	TMC3	C3	1	0.0862	12.011
8446	CB	567	TMC3	C4	1	-0.15	12.011
8447	CB	567	TMC3	C5	1	0.0862	12.011
8448	CB	567	TMC3	C6	1	-0.15	12.011
8449	C=O	567	TMC3	C	1	0.5438	12.011
8450	O=C	567	TMC3	O	1	-0.57	15.9994
8451	HCMM	567	TMC3	H	1	0.15	1.0079
8452	HCMM	567	TMC3	H1	1	0.15	1.0079
8453	HCMM	567	TMC3	H2	1	0.15	1.0079
8454	C=O	567	TMC3	C7	1	0.5438	12.011
8455	C=O	567	TMC3	C8	1	0.5438	12.011
8456	O=C	567	TMC3	O1	1	-0.57	15.9994
8457	O=C	567	TMC3	O2	1	-0.57	15.9994
8458	CB	568	MPD2	C	1	-0.15	12.011
8459	CB	568	MPD2	C1	1	0.117	12.011
8460	CB	568	MPD2	C2	1	-0.15	12.011
8461	CB	568	MPD2	C3	1	0.117	12.011
8462	CB	568	MPD2	C4	1	-0.15	12.011
8463	CB	568	MPD2	C5	1	-0.15	12.011
8464	HCMM	568	MPD2	H	1	0.15	1.0079
8465	HCMM	568	MPD2	H1	1	0.15	1.0079
8466	HCMM	568	MPD2	H2	1	0.15	1.0079
8467	HCMM	568	MPD2	H3	1	0.15	1.0079
8468	NC=O	568	MPD2	N	1	-0.547	14.0067
8469	HNCO	568	MPD2	H5	1	0.37	1.0079
8470	NC=O	568	MPD2	N1	1	-0.547	14.0067
8471	HNCO	568	MPD2	H7	1	0.37	1.0079
8472	CB	569	TMC3	C1	1	0.0862	12.011
8473	CB	569	TMC3	C2	1	-0.15	12.011
8474	CB	569	TMC3	C3	1	0.0862	12.011
8475	CB	569	TMC3	C4	1	-0.15	12.011
8476	CB	569	TMC3	C5	1	0.0862	12.011
8477	CB	569	TMC3	C6	1	-0.15	12.011
8478	C=O	569	TMC3	C	1	0.5438	12.011
8479	O=C	569	TMC3	O	1	-0.57	15.9994
8480	HCMM	569	TMC3	H	1	0.15	1.0079
8481	HCMM	569	TMC3	H1	1	0.15	1.0079
8482	HCMM	569	TMC3	H2	1	0.15	1.0079
8483	C=O	569	TMC3	C7	1	0.5438	12.011
8484	C=O	569	TMC3	C8	1	0.5438	12.011
8485	O=C	569	TMC3	O1	1	-0.57	15.9994
8486	O=C	569	TMC3	O2	1	-0.57	15.9994
8487	CB	570	TMC3	C1	1	0.0862	12.011
8488	CB	570	TMC3	C2	1	-0.15	12.011
8489	CB	570	TMC3	C3	1	0.0862	12.011
8490	CB	570	TMC3	C4	1	-0.15	12.011
8491	CB	570	TMC3	C5	1	0.0862	12.011
8492	CB	570	TMC3	C6	1	-0.15	12.011
8493	C=O	570	TMC3	C	1	0.5438	12.011
8494	O=C	570	TMC3	O	1	-0.57	15.9994
8495	HCMM	570	TMC3	H	1	0.15	1.0079
8496	HCMM	570	TMC3	H1	1	0.15	1.0079
8497	HCMM	570	TMC3	H2	1	0.15	1.0079
8498	C=O	570	TMC3	C7	1	0.5438	12.011
8499	C=O	570	TMC3	C8	1	0.5438	12.011
8500	O=C	570	TMC3	O1	1	-0.57	15.9994
8501	O=C	570	TMC3	O2	1	-0.57	15.9994
8502	CB	571	MPD2	C	1	-0.15	12.011
8503	CB	571	MPD2	C1	1	0.117	12.011
8504	CB	571	MPD2	C2	1	-0.15	12.011
8505	CB	571	MPD2	C3	1	0.117	12.011
8506	CB	571	MPD2	C4	1	-0.15	12.011
8507	CB	571	MPD2	C5	1	-0.15	12.011
8508	HCMM	571	MPD2	H	1	0.15	1.0079
8509	HCMM	571	MPD2	H1	1	0.15	1.0079
8510	HCMM	571	MPD2	H2	1	0.15	1.0079
8511	HCMM	571	MPD2	H3	1	0.15	1.0079
8512	NC=O	571	MPD2	N	1	-0.547	14.0067
8513	HNCO	571	MPD2	H5	1	0.37	1.0079
8514	NC=O	571	MPD2	N1	1	-0.547	14.0067
8515	HNCO	571	MPD2	H7	1	0.37	1.0079
8516	CB	572	TMC3	C1	1	0.0862	12.011
8517	CB	572	TMC3	C2	1	-0.15	12.011
8518	CB	572	TMC3	C3	1	0.0862	12.011
8519	CB	572	TMC3	C4	1	-0.15	12.011
8520	CB	572	TMC3	C5	1	0.0862	12.011
8521	CB	572	TMC3	C6	1	-0.15	12.011
8522	C=O	572	TMC3	C	1	0.5438	12.011
8523	O=C	572	TMC3	O	1	-0.57	15.9994
8524	HCMM	572	TMC3	H	1	0.15	1.0079
8525	HCMM	572	TMC3	H1	1	0.15	1.0079
8526	HCMM	572	TMC3	H2	1	0.15	1.0079
8527	C=O	572	TMC3	C7	1	0.5438	12.011
8528	C=O	572	TMC3	C8	1	0.5438	12.011
8529	O=C	572	TMC3	O1	1	-0.57	15.9994
8530	O=C	572	TMC3	O2	1	-0.57	15.9994
8531	CB	573	MPD2	C	1	-0.15	12.011
8532	CB	573	MPD2	C1	1	0.117	12.011
8533	CB	573	MPD2	C2	1	-0.15	12.011
8534	CB	573	MPD2	C3	1	0.117	12.011
8535	CB	573	MPD2	C4	1	-0.15	12.011
8536	CB	573	MPD2	C5	1	-0.15	12.011
8537	HCMM	573	MPD2	H	1	0.15	1.0079
8538	HCMM	573	MPD2	H1	1	0.15	1.0079
8539	HCMM	573	MPD2	H2	1	0.15	1.0079
8540	HCMM	573	MPD2	H3	1	0.15	1.0079
8541	NC=O	573	MPD2	N	1	-0.547	14.0067
8542	HNCO	573	MPD2	H5	1	0.37	1.0079
8543	NC=O	573	MPD2	N1	1	-0.547	14.0067
8544	HNCO	573	MPD2	H7	1	0.37	1.0079
8545	CB	574	TMC3	C1	1	0.0862	12.011
8546	CB	574	TMC3	C2	1	-0.15	12.011
8547	CB	574	TMC3	C3	1	0.0862	12.011
8548	CB	574	TMC3	C4	1	-0.15	12.011
8549	CB	574	TMC3	C5	1	0.0862	12.011
8550	CB	574	TMC3	C6	1	-0.15	12.011
8551	C=O	574	TMC3	C	1	0.5438	12.011
8552	O=C	574	TMC3	O	1	-0.57	15.9994
8553	HCMM	574	TMC3	H	1	0.15	1.0079
8554	HCMM	574	TMC3	H1	1	0.15	1.0079
8555	HCMM	574	TMC3	H2	1	0.15	1.0079
8556	C=O	574	TMC3	C7	1	0.5438	12.011
8557	C=O	574	TMC3	C8	1	0.5438	12.011
8558	O=C	574	TMC3	O1	1	-0.57	15.9994
8559	O=C	574	TMC3	O2	1	-0.57	15.9994
8560	CB	575	TMC3	C1	1	0.0862	12.011
8561	CB	575	TMC3	C2	1	-0.15	12.011
8562	CB	575	TMC3	C3	1	0.0862	12.011
8563	CB	575	TMC3	C4	1	-0.15	12.011
8564	CB	575	TMC3	C5	1	0.0862	12.011
8565	CB	575	TMC3	C6	1	-0.15	12.011
8566	C=O	575	TMC3	C	1	0.5438	12.011
8567	O=C	575	TMC3	O	1	-0.57	15.9994
8568	HCMM	575	TMC3	H	1	0.15	1.0079
8569	HCMM	575	TMC3	H1	1	0.15	1.0079
8570	HCMM	575	TMC3	H2	1	0.15	1.0079
8571	C=O	575	TMC3	C7	1	0.5438	12.011
8572	C=O	575	TMC3	C8	1	0.5438	12.011
8573	O=C	575	TMC3	O1	1	-0.57	15.9994
8574	O=C	575	TMC3	O2	1	-0.57	15.9994
8575	CB	576	MPD2	C	1	-0.15	12.011
8576	CB	576	MPD2	C1	1	0.117	12.011
8577	CB	576	MPD2	C2	1	-0.15	12.011
8578	CB	576	MPD2	C3	1	0.117	12.011
8579	CB	576	MPD2	C4	1	-0.15	12.011
8580	CB	576	MPD2	C5	1	-0.15	12.011
8581	HCMM	576	MPD2	H	1	0.15	1.0079
8582	HCMM	576	MPD2	H1	1	0.15	1.0079
8583	HCMM	576	MPD2	H2	1	0.15	1.0079
8584	HCMM	576	MPD2	H3	1	0.15	1.0079
8585	NC=O	576	MPD2	N	1	-0.547	14.0067
8586	HNCO	576	MPD2	H5	1	0.37	1.0079
8587	NC=O	576	MPD2	N1	1	-0.547	14.0067
8588	HNCO	576	MPD2	H7	1	0.37	1.0079
8589	CB	577	TMC3	C1	1	0.0862	12.011
8590	CB	577	TMC3	C2	1	-0.15	12.011
8591	CB	577	TMC3	C3	1	0.0862	12.011
8592	CB	577	TMC3	C4	1	-0.15	12.011
8593	CB	577	TMC3	C5	1	0.0862	12.011
8594	CB	577	TMC3	C6	1	-0.15	12.011
8595	C=O	577	TMC3	C	1	0.5438	12.011
8596	O=C	577	TMC3	O	1	-0.57	15.9994
8597	HCMM	577	TMC3	H	1	0.15	1.0079
8598	HCMM	577	TMC3	H1	1	0.15	1.0079
8599	HCMM	577	TMC3	H2	1	0.15	1.0079
8600	C=O	577	TMC3	C7	1	0.5438	12.011
8601	C=O	577	TMC3	C8	1	0.5438	12.011
8602	O=C	577	TMC3	O1	1	-0.57	15.9994
8603	O=C	577	TMC3	O2	1	-0.57	15.9994
8604	CB	578	MPD2	C	1	-0.15	12.011
8605	CB	578	MPD2	C1	1	0.117	12.011
8606	CB	578	MPD2	C2	1	-0.15	12.011
8607	CB	578	MPD2	C3	1	0.117	12.011
8608	CB	578	MPD2	C4	1	-0.15	12.011
8609	CB	578	MPD2	C5	1	-0.15	12.011
8610	HCMM	578	MPD2	H	1	0.15	1.0079
8611	HCMM	578	MPD2	H1	1	0.15	1.0079
8612	HCMM	578	MPD2	H2	1	0.15	1.0079
8613	HCMM	578	MPD2	H3	1	0.15	1.0079
8614	NC=O	578	MPD2	N	1	-0.547	14.0067
8615	HNCO	578	MPD2	H5	1	0.37	1.0079
8616	NC=O	578	MPD2	N1	1	-0.547	14.0067
8617	HNCO	578	MPD2	H7	1	0.37	1.0079
8618	CB	579	TMC3	C1	1	0.0862	12.011
8619	CB	579	TMC3	C2	1	-0.15	12.011
8620	CB	579	TMC3	C3	1	0.0862	12.011
8621	CB	579	TMC3	C4	1	-0.15	12.011
8622	CB	579	TMC3	C5	1	0.0862	12.011
8623	CB	579	TMC3	C6	1	-0.15	12.011
8624	C=O	579	TMC3	C	1	0.5438	12.011
8625	O=C	579	TMC3	O	1	-0.57	15.9994
8626	HCMM	579	TMC3	H	1	0.15	1.0079
8627	HCMM	579	TMC3	H1	1	0.15	1.0079
8628	HCMM	579	TMC3	H2	1	0.15	1.0079
8629	C=O	579	TMC3	C7	1	0.5438	12.011
8630	C=O	579	TMC3	C8	1	0.5438	12.011
8631	O=C	579	TMC3	O1	1	-0.57	15.9994
8632	O=C	579	TMC3	O2	1	-0.57	15.9994
8633	CB	580	TMC3	C1	1	0.0862	12.011
8634	CB	580	TMC3	C2	1	-0.15	12.011
8635	CB	580	TMC3	C3	1	0.0862	12.011
8636	CB	580	TMC3	C4	1	-0.15	12.011
8637	CB	580	TMC3	C5	1	0.0862	12.011
8638	CB	580	TMC3	C6	1	-0.15	12.011
8639	C=O	580	TMC3	C	1	0.5438	12.011
8640	O=C	580	TMC3	O	1	-0.57	15.9994
8641	HCMM	580	TMC3	H	1	0.15	1.0079
8642	HCMM	580	TMC3	H1	1	0.15	1.0079
8643	HCMM	580	TMC3	H2	1	0.15	1.0079
8644	C=O	580	TMC3	C7	1	0.5438	12.011
8645	C=O	580	TMC3	C8	1	0.5438	12.011
8646	O=C	580	TMC3	O1	1	-0.57	15.9994
8647	O=C	580	TMC3	O2	1	-0.57	15.9994
8648	CB	581	MPD2	C	1	-0.15	12.011
8649	CB	581	MPD2	C1	1	0.117	12.011
8650	CB	581	MPD2	C2	1	-0.15	12.011
8651	CB	581	MPD2	C3	1	0.117	12.011
8652	CB	581	MPD2	C4	1	-0.15	12.011
8653	CB	581	MPD2	C5	1	-0.15	12.011
8654	HCMM	581	MPD2	H	1	0.15	1.0079
8655	HCMM	581	MPD2	H1	1	0.15	1.0079
8656	HCMM	581	MPD2	H2	1	0.15	1.0079
8657	HCMM	581	MPD2	H3	1	0.15	1.0079
8658	NC=O	581	MPD2	N	1	-0.547	14.0067
8659	HNCO	581	MPD2	H5	1	0.37	1.0079
8660	NC=O	581	MPD2	N1	1	-0.547	14.0067
8661	HNCO	581	MPD2	H7	1	0.37	1.0079
8662	CB	582	TMC3	C1	1	0.0862	12.011
8663	CB	582	TMC3	C2	1	-0.15	12.011
8664	CB	582	TMC3	C3	1	0.0862	12.011
8665	CB	582	TMC3	C4	1	-0.15	12.011
8666	CB	582	TMC3	C5	1	0.0862	12.011
8667	CB	582	TMC3	C6	1	-0.15	12.011
8668	C=O	582	TMC3	C	1	0.5438	12.011
8669	O=C	582	TMC3	O	1	-0.57	15.9994
8670	HCMM	582	TMC3	H	1	0.15	1.0079
8671	HCMM	582	TMC3	H1	1	0.15	1.0079
8672	HCMM	582	TMC3	H2	1	0.15	1.0079
8673	C=O	582	TMC3	C7	1	0.5438	12.011
8674	C=O	582	TMC3	C8	1	0.5438	12.011
8675	O=C	582	TMC3	O1	1	-0.57	15.9994
8676	O=C	582	TMC3	O2	1	-0.57	15.9994
8677	CB	583	MPD2	C	1	-0.15	12.011
8678	CB	583	MPD2	C1	1	0.117	12.011
8679	CB	583	MPD2	C2	1	-0.15	12.011
8680	CB	583	MPD2	C3	1	0.117	12.011
8681	CB	583	MPD2	C4	1	-0.15	12.011
8682	CB	583	MPD2	C5	1	-0.15	12.011
8683	HCMM	583	MPD2	H	1	0.15	1.0079
8684	HCMM	583	MPD2	H1	1	0.15	1.0079
8685	HCMM	583	MPD2	H2	1	0.15	1.0079
8686	HCMM	583	MPD2	H3	1	0.15	1.0079
8687	NC=O	583	MPD2	N	1	-0.547	14.0067
8688	HNCO	583	MPD2	H5	1	0.37	1.0079
8689	NC=O	583	MPD2	N1	1	-0.547	14.0067
8690	HNCO	583	MPD2	H7	1	0.37	1.0079
8691	CB	584	TMC3	C1	1	0.0862	12.011
8692	CB	584	TMC3	C2	1	-0.15	12.011
8693	CB	584	TMC3	C3	1	0.0862	12.011
8694	CB	584	TMC3	C4	1	-0.15	12.011
8695	CB	584	TMC3	C5	1	0.0862	12.011
8696	CB	584	TMC3	C6	1	-0.15	12.011
8697	C=O	584	TMC3	C	1	0.5438	12.011
8698	O=C	584	TMC3	O	1	-0.57	15.9994
8699	HCMM	584	TMC3	H	1	0.15	1.0079
8700	HCMM	584	TMC3	H1	1	0.15	1.0079
8701	HCMM	584	TMC3	H2	1	0.15	1.0079
8702	C=O	584	TMC3	C7	1	0.5438	12.011
8703	C=O	584	TMC3	C8	1	0.5438	12.011
8704	O=C	584	TMC3	O1	1	-0.57	15.9994
8705	O=C	584	TMC3	O2	1	-0.57	15.9994
8706	CB	585	MPD2	C	1	-0.15	12.011
8707	CB	585	MPD2	C1	1	0.117	12.011
8708	CB	585	MPD2	C2	1	-0.15	12.011
8709	CB	585	MPD2	C3	1	0.117	12.011
8710	CB	585	MPD2	C4	1	-0.15	12.011
8711	CB	585	MPD2	C5	1	-0.15	12.011
8712	HCMM	585	MPD2	H	1	0.15	1.0079
8713	HCMM	585	MPD2	H1	1	0.15	1.0079
8714	HCMM	585	MPD2	H2	1	0.15	1.0079
8715	HCMM	585	MPD2	H3	1	0.15	1.0079
8716	NC=O	585	MPD2	N	1	-0.547	14.0067
8717	HNCO	585	MPD2	H5	1	0.37	1.0079
8718	NC=O	585	MPD2	N1	1	-0.547	14.0067
8719	HNCO	585	MPD2	H7	1	0.37	1.0079
8720	CB	586	TMC3	C1	1	0.0862	12.011
8721	CB	586	TMC3	C2	1	-0.15	12.011
8722	CB	586	TMC3	C3	1	0.0862	12.011
8723	CB	586	TMC3	C4	1	-0.15	12.011
8724	CB	586	TMC3	C5	1	0.0862	12.011
8725	CB	586	TMC3	C6	1	-0.15	12.011
8726	C=O	586	TMC3	C	1	0.5438	12.011
8727	O=C	586	TMC3	O	1	-0.57	15.9994
8728	HCMM	586	TMC3	H	1	0.15	1.0079
8729	HCMM	586	TMC3	H1	1	0.15	1.0079
8730	HCMM	586	TMC3	H2	1	0.15	1.0079
8731	C=O	586	TMC3	C7	1	0.5438	12.011
8732	C=O	586	TMC3	C8	1	0.5438	12.011
8733	O=C	586	TMC3	O1	1	-0.57	15.9994
8734	O=C	586	TMC3	O2	1	-0.57	15.9994
8735	CB	587	TMC3	C1	1	0.0862	12.011
8736	CB	587	TMC3	C2	1	-0.15	12.011
8737	CB	587	TMC3	C3	1	0.0862	12.011
8738	CB	587	TMC3	C4	1	-0.15	12.011
8739	CB	587	TMC3	C5	1	0.0862	12.011
8740	CB	587	TMC3	C6	1	-0.15	12.011
8741	C=O	587	TMC3	C	1	0.5438	12.011
8742	O=C	587	TMC3	O	1	-0.57	15.9994
8743	HCMM	587	TMC3	H	1	0.15	1.0079
8744	HCMM	587	TMC3	H1	1	0.15	1.0079
8745	HCMM	587	TMC3	H2	1	0.15	1.0079
8746	C=O	587	TMC3	C7	1	0.5438	12.011
8747	C=O	587	TMC3	C8	1	0.5438	12.011
8748	O=C	587	TMC3	O1	1	-0.57	15.9994
8749	O=C	587	TMC3	O2	1	-0.57	15.9994
8750	CB	588	TMC3	C1	1	0.0862	12.011
8751	CB	588	TMC3	C2	1	-0.15	12.011
8752	CB	588	TMC3	C3	1	0.0862	12.011
8753	CB	588	TMC3	C4	1	-0.15	12.011
8754	CB	588	TMC3	C5	1	0.0862	12.011
8755	CB	588	TMC3	C6	1	-0.15	12.011
8756	C=O	588	TMC3	C	1	0.5438	12.011
8757	O=C	588	TMC3	O	1	-0.57	15.9994
8758	HCMM	588	TMC3	H	1	0.15	1.0079
8759	HCMM	588	TMC3	H1	1	0.15	1.0079
8760	HCMM	588	TMC3	H2	1	0.15	1.0079
8761	C=O	588	TMC3	C7	1	0.5438	12.011
8762	C=O	588	TMC3	C8	1	0.5438	12.011
8763	O=C	588	TMC3	O1	1	-0.57	15.9994
8764	O=C	588	TMC3	O2	1	-0.57	15.9994
8765	CB	589	TMC3	C1	1	0.0862	12.011
8766	CB	589	TMC3	C2	1	-0.15	12.011
8767	CB	589	TMC3	C3	1	0.0862	12.011
8768	CB	589	TMC3	C4	1	-0.15	12.011
8769	CB	589	TMC3	C5	1	0.0862	12.011
8770	CB	589	TMC3	C6	1	-0.15	12.011
8771	C=O	589	TMC3	C	1	0.5438	12.011
8772	O=C	589	TMC3	O	1	-0.57	15.9994
8773	HCMM	589	TMC3	H	1	0.15	1.0079
8774	HCMM	589	TMC3	H1	1	0.15	1.0079
8775	HCMM	589	TMC3	H2	1	0.15	1.0079
8776	C=O	589	TMC3	C7	1	0.5438	12.011
8777	C=O	589	TMC3	C8	1	0.5438	12.011
8778	O=C	589	TMC3	O1	1	-0.57	15.9994
8779	O=C	589	TMC3	O2	1	-0.57	15.9994
8780	CB	590	MPD2	C	1	-0.15	12.011
8781	CB	590	MPD2	C1	1	0.117	12.011
8782	CB	590	MPD2	C2	1	-0.15	12.011
8783	CB	590	MPD2	C3	1	0.117	12.011
8784	CB	590	MPD2	C4	1	-0.15	12.011
8785	CB	590	MPD2	C5	1	-0.15	12.011
8786	HCMM	590	MPD2	H	1	0.15	1.0079
8787	HCMM	590	MPD2	H1	1	0.15	1.0079
8788	HCMM	590	MPD2	H2	1	0.15	1.0079
8789	HCMM	590	MPD2	H3	1	0.15	1.0079
8790	NC=O	590	MPD2	N	1	-0.547	14.0067
8791	HNCO	590	MPD2	H5	1	0.37	1.0079
8792	NC=O	590	MPD2	N1	1	-0.547	14.0067
8793	HNCO	590	MPD2	H7	1	0.37	1.0079
8794	CB	591	TMC3	C1	1	0.0862	12.011
8795	CB	591	TMC3	C2	1	-0.15	12.011
8796	CB	591	TMC3	C3	1	0.0862	12.011
8797	CB	591	TMC3	C4	1	-0.15	12.011
8798	CB	591	TMC3	C5	1	0.0862	12.011
8799	CB	591	TMC3	C6	1	-0.15	12.011
8800	C=O	591	TMC3	C	1	0.5438	12.011
8801	O=C	591	TMC3	O	1	-0.57	15.9994
8802	HCMM	591	TMC3	H	1	0.15	1.0079
8803	HCMM	591	TMC3	H1	1	0.15	1.0079
8804	HCMM	591	TMC3	H2	1	0.15	1.0079
8805	C=O	591	TMC3	C7	1	0.5438	12.011
8806	C=O	591	TMC3	C8	1	0.5438	12.011
8807	O=C	591	TMC3	O1	1	-0.57	15.9994
8808	O=C	591	TMC3	O2	1	-0.57	15.9994
8809	CB	592	MPD2	C	1	-0.15	12.011
8810	CB	592	MPD2	C1	1	0.117	12.011
8811	CB	592	MPD2	C2	1	-0.15	12.011
8812	CB	592	MPD2	C3	1	0.117	12.011
8813	CB	592	MPD2	C4	1	-0.15	12.011
8814	CB	592	MPD2	C5	1	-0.15	12.011
8815	HCMM	592	MPD2	H	1	0.15	1.0079
8816	HCMM	592	MPD2	H1	1	0.15	1.0079
8817	HCMM	592	MPD2	H2	1	0.15	1.0079
8818	HCMM	592	MPD2	H3	1	0.15	1.0079
8819	NC=O	592	MPD2	N	1	-0.547	14.0067
8820	HNCO	592	MPD2	H5	1	0.37	1.0079
8821	NC=O	592	MPD2	N1	1	-0.547	14.0067
8822	HNCO	592	MPD2	H7	1	0.37	1.0079
8823	CB	593	TMC3	C1	1	0.0862	12.011
8824	CB	593	TMC3	C2	1	-0.15	12.011
8825	CB	593	TMC3	C3	1	0.0862	12.011
8826	CB	593	TMC3	C4	1	-0.15	12.011
8827	CB	593	TMC3	C5	1	0.0862	12.011
8828	CB	593	TMC3	C6	1	-0.15	12.011
8829	C=O	593	TMC3	C	1	0.5438	12.011
8830	O=C	593	TMC3	O	1	-0.57	15.9994
8831	HCMM	593	TMC3	H	1	0.15	1.0079
8832	HCMM	593	TMC3	H1	1	0.15	1.0079
8833	HCMM	593	TMC3	H2	1	0.15	1.0079
8834	C=O	593	TMC3	C7	1	0.5438	12.011
8835	C=O	593	TMC3	C8	1	0.5438	12.011
8836	O=C	593	TMC3	O1	1	-0.57	15.9994
8837	O=C	593	TMC3	O2	1	-0.57	15.9994
8838	CB	594	MPD2	C	1	-0.15	12.011
8839	CB	594	MPD2	C1	1	0.117	12.011
8840	CB	594	MPD2	C2	1	-0.15	12.011
8841	CB	594	MPD2	C3	1	0.117	12.011
8842	CB	594	MPD2	C4	1	-0.15	12.011
8843	CB	594	MPD2	C5	1	-0.15	12.011
8844	HCMM	594	MPD2	H	1	0.15	1.0079
8845	HCMM	594	MPD2	H1	1	0.15	1.0079
8846	HCMM	594	MPD2	H2	1	0.15	1.0079
8847	HCMM	594	MPD2	H3	1	0.15	1.0079
8848	NC=O	594	MPD2	N	1	-0.547	14.0067
8849	HNCO	594	MPD2	H5	1	0.37	1.0079
8850	NC=O	594	MPD2	N1	1	-0.547	14.0067
8851	HNCO	594	MPD2	H7	1	0.37	1.0079
8852	CB	595	TMC3	C1	1	0.0862	12.011
8853	CB	595	TMC3	C2	1	-0.15	12.011
8854	CB	595	TMC3	C3	1	0.0862	12.011
8855	CB	595	TMC3	C4	1	-0.15	12.011
8856	CB	595	TMC3	C5	1	0.0862	12.011
8857	CB	595	TMC3	C6	1	-0.15	12.011
8858	C=O	595	TMC3	C	1	0.5438	12.011
8859	O=C	595	TMC3	O	1	-0.57	15.9994
8860	HCMM	595	TMC3	H	1	0.15	1.0079
8861	HCMM	595	TMC3	H1	1	0.15	1.0079
8862	HCMM	595	TMC3	H2	1	0.15	1.0079
8863	C=O	595	TMC3	C7	1	0.5438	12.011
8864	C=O	595	TMC3	C8	1	0.5438	12.011
8865	O=C	595	TMC3	O1	1	-0.57	15.9994
8866	O=C	595	TMC3	O2	1	-0.57	15.9994
8867	CB	596	MPD2	C	1	-0.15	12.011
8868	CB	596	MPD2	C1	1	0.117	12.011
8869	CB	596	MPD2	C2	1	-0.15	12.011
8870	CB	596	MPD2	C3	1	0.117	12.011
8871	CB	596	MPD2	C4	1	-0.15	12.011
8872	CB	596	MPD2	C5	1	-0.15	12.011
8873	HCMM	596	MPD2	H	1	0.15	1.0079
8874	HCMM	596	MPD2	H1	1	0.15	1.0079
8875	HCMM	596	MPD2	H2	1	0.15	1.0079
8876	HCMM	596	MPD2	H3	1	0.15	1.0079
8877	NC=O	596	MPD2	N	1	-0.547	14.0067
8878	HNCO	596	MPD2	H5	1	0.37	1.0079
8879	NC=O	596	MPD2	N1	1	-0.547	14.0067
8880	HNCO	596	MPD2	H7	1	0.37	1.0079
8881	CB	597	TMC3	C1	1	0.0862	12.011
8882	CB	597	TMC3	C2	1	-0.15	12.011
8883	CB	597	TMC3	C3	1	0.0862	12.011
8884	CB	597	TMC3	C4	1	-0.15	12.011
8885	CB	597	TMC3	C5	1	0.0862	12.011
8886	CB	597	TMC3	C6	1	-0.15	12.011
8887	C=O	597	TMC3	C	1	0.5438	12.011
8888	O=C	597	TMC3	O	1	-0.57	15.9994
8889	HCMM	597	TMC3	H	1	0.15	1.0079
8890	HCMM	597	TMC3	H1	1	0.15	1.0079
8891	HCMM	597	TMC3	H2	1	0.15	1.0079
8892	C=O	597	TMC3	C7	1	0.5438	12.011
8893	C=O	597	TMC3	C8	1	0.5438	12.011
8894	O=C	597	TMC3	O1	1	-0.57	15.9994
8895	O=C	597	TMC3	O2	1	-0.57	15.9994
8896	CB	598	TMC3	C1	1	0.0862	12.011
8897	CB	598	TMC3	C2	1	-0.15	12.011
8898	CB	598	TMC3	C3	1	0.0862	12.011
8899	CB	598	TMC3	C4	1	-0.15	12.011
8900	CB	598	TMC3	C5	1	0.0862	12.011
8901	CB	598	TMC3	C6	1	-0.15	12.011
8902	C=O	598	TMC3	C	1	0.5438	12.011
8903	O=C	598	TMC3	O	1	-0.57	15.9994
8904	HCMM	598	TMC3	H	1	0.15	1.0079
8905	HCMM	598	TMC3	H1	1	0.15	1.0079
8906	HCMM	598	TMC3	H2	1	0.15	1.0079
8907	C=O	598	TMC3	C7	1	0.5438	12.011
8908	C=O	598	TMC3	C8	1	0.5438	12.011
8909	O=C	598	TMC3	O1	1	-0.57	15.9994
8910	O=C	598	TMC3	O2	1	-0.57	15.9994
8911	CB	599	MPD2	C	1	-0.15	12.011
8912	CB	599	MPD2	C1	1	0.117	12.011
8913	CB	599	MPD2	C2	1	-0.15	12.011
8914	CB	599	MPD2	C3	1	0.117	12.011
8915	CB	599	MPD2	C4	1	-0.15	12.011
8916	CB	599	MPD2	C5	1	-0.15	12.011
8917	HCMM	599	MPD2	H	1	0.15	1.0079
8918	HCMM	599	MPD2	H1	1	0.15	1.0079
8919	HCMM	599	MPD2	H2	1	0.15	1.0079
8920	HCMM	599	MPD2	H3	1	0.15	1.0079
8921	NC=O	599	MPD2	N	1	-0.547	14.0067
8922	HNCO	599	MPD2	H5	1	0.37	1.0079
8923	NC=O	599	MPD2	N1	1	-0.547	14.0067
8924	HNCO	599	MPD2	H7	1	0.37	1.0079
8925	CB	600	TMC3	C1	1	0.0862	12.011
8926	CB	600	TMC3	C2	1	-0.15	12.011
8927	CB	600	TMC3	C3	1	0.0862	12.011
8928	CB	600	TMC3	C4	1	-0.15	12.011
8929	CB	600	TMC3	C5	1	0.0862	12.011
8930	CB	600	TMC3	C6	1	-0.15	12.011
8931	C=O	600	TMC3	C	1	0.5438	12.011
8932	O=C	600	TMC3	O	1	-0.57	15.9994
8933	HCMM	600	TMC3	H	1	0.15	1.0079
8934	HCMM	600	TMC3	H1	1	0.15	1.0079
8935	HCMM	600	TMC3	H2	1	0.15	1.0079
8936	C=O	600	TMC3	C7	1	0.5438	12.011
8937	C=O	600	TMC3	C8	1	0.5438	12.011
8938	O=C	600	TMC3	O1	1	-0.57	15.9994
8939	O=C	600	TMC3	O2	1	-0.57	15.9994
8940	CB	601	MPD2	C	1	-0.15	12.011
8941	CB	601	MPD2	C1	1	0.117	12.011
8942	CB	601	MPD2	C2	1	-0.15	12.011
8943	CB	601	MPD2	C3	1	0.117	12.011
8944	CB	601	MPD2	C4	1	-0.15	12.011
8945	CB	601	MPD2	C5	1	-0.15	12.011
8946	HCMM	601	MPD2	H	1	0.15	1.0079
8947	HCMM	601	MPD2	H1	1	0.15	1.0079
8948	HCMM	601	MPD2	H2	1	0.15	1.0079
8949	HCMM	601	MPD2	H3	1	0.15	1.0079
8950	NC=O	601	MPD2	N	1	-0.547	14.0067
8951	HNCO	601	MPD2	H5	1	0.37	1.0079
8952	NC=O	601	MPD2	N1	1	-0.547	14.0067
8953	HNCO	601	MPD2	H7	1	0.37	1.0079
8954	CB	602	TMC3	C1	1	0.0862	12.011
8955	CB	602	TMC3	C2	1	-0.15	12.011
8956	CB	602	TMC3	C3	1	0.0862	12.011
8957	CB	602	TMC3	C4	1	-0.15	12.011
8958	CB	602	TMC3	C5	1	0.0862	12.011
8959	CB	602	TMC3	C6	1	-0.15	12.011
8960	C=O	602	TMC3	C	1	0.5438	12.011
8961	O=C	602	TMC3	O	1	-0.57	15.9994
8962	HCMM	602	TMC3	H	1	0.15	1.0079
8963	HCMM	602	TMC3	H1	1	0.15	1.0079
8964	HCMM	602	TMC3	H2	1	0.15	1.0079
8965	C=O	602	TMC3	C7	1	0.5438	12.011
8966	C=O	602	TMC3	C8	1	0.5438	12.011
8967	O=C	602	TMC3	O1	1	-0.57	15.9994
8968	O=C	602	TMC3	O2	1	-0.57	15.9994
8969	CB	603	TMC3	C1	1	0.0862	12.011
8970	CB	603	TMC3	C2	1	-0.15	12.011
8971	CB	603	TMC3	C3	1	0.0862	12.011
8972	CB	603	TMC3	C4	1	-0.15	12.011
8973	CB	603	TMC3	C5	1	0.0862	12.011
8974	CB	603	TMC3	C6	1	-0.15	12.011
8975	C=O	603	TMC3	C	1	0.5438	12.011
8976	O=C	603	TMC3	O	1	-0.57	15.9994
8977	HCMM	603	TMC3	H	1	0.15	1.0079
8978	HCMM	603	TMC3	H1	1	0.15	1.0079
8979	HCMM	603	TMC3	H2	1	0.15	1.0079
8980	C=O	603	TMC3	C7	1	0.5438	12.011
8981	C=O	603	TMC3	C8	1	0.5438	12.011
8982	O=C	603	TMC3	O1	1	-0.57	15.9994
8983	O=C	603	TMC3	O2	1	-0.57	15.9994
8984	CB	604	MPD2	C	1	-0.15	12.011
8985	CB	604	MPD2	C1	1	0.117	12.011
8986	CB	604	MPD2	C2	1	-0.15	12.011
8987	CB	604	MPD2	C3	1	0.117	12.011
8988	CB	604	MPD2	C4	1	-0.15	12.011
8989	CB	604	MPD2	C5	1	-0.15	12.011
8990	HCMM	604	MPD2	H	1	0.15	1.0079
8991	HCMM	604	MPD2	H1	1	0.15	1.0079
8992	HCMM	604	MPD2	H2	1	0.15	1.0079
8993	HCMM	604	MPD2	H3	1	0.15	1.0079
8994	NC=O	604	MPD2	N	1	-0.547	14.0067
8995	HNCO	604	MPD2	H5	1	0.37	1.0079
8996	NC=O	604	MPD2	N1	1	-0.547	14.0067
8997	HNCO	604	MPD2	H7	1	0.37	1.0079
8998	CB	605	TMC3	C1	1	0.0862	12.011
8999	CB	605	TMC3	C2	1	-0.15	12.011
9000	CB	605	TMC3	C3	1	0.0862	12.011
9001	CB	605	TMC3	C4	1	-0.15	12.011
9002	CB	605	TMC3	C5	1	0.0862	12.011
9003	CB	605	TMC3	C6	1	-0.15	12.011
9004	C=O	605	TMC3	C	1	0.5438	12.011
9005	O=C	605	TMC3	O	1	-0.57	15.9994
9006	HCMM	605	TMC3	H	1	0.15	1.0079
9007	HCMM	605	TMC3	H1	1	0.15	1.0079
9008	HCMM	605	TMC3	H2	1	0.15	1.0079
9009	C=O	605	TMC3	C7	1	0.5438	12.011
9010	C=O	605	TMC3	C8	1	0.5438	12.011
9011	O=C	605	TMC3	O1	1	-0.57	15.9994
9012	O=C	605	TMC3	O2	1	-0.57	15.9994
9013	CB	606	TMC3	C1	1	0.0862	12.011
9014	CB	606	TMC3	C2	1	-0.15	12.011
9015	CB	606	TMC3	C3	1	0.0862	12.011
9016	CB	606	TMC3	C4	1	-0.15	12.011
9017	CB	606	TMC3	C5	1	0.0862	12.011
9018	CB	606	TMC3	C6	1	-0.15	12.011
9019	C=O	606	TMC3	C	1	0.5438	12.011
9020	O=C	606	TMC3	O	1	-0.57	15.9994
9021	HCMM	606	TMC3	H	1	0.15	1.0079
9022	HCMM	606	TMC3	H1	1	0.15	1.0079
9023	HCMM	606	TMC3	H2	1	0.15	1.0079
9024	C=O	606	TMC3	C7	1	0.5438	12.011
9025	C=O	606	TMC3	C8	1	0.5438	12.011
9026	O=C	606	TMC3	O1	1	-0.57	15.9994
9027	O=C	606	TMC3	O2	1	-0.57	15.9994
9028	CB	607	MPD2	C	1	-0.15	12.011
9029	CB	607	MPD2	C1	1	0.117	12.011
9030	CB	607	MPD2	C2	1	-0.15	12.011
9031	CB	607	MPD2	C3	1	0.117	12.011
9032	CB	607	MPD2	C4	1	-0.15	12.011
9033	CB	607	MPD2	C5	1	-0.15	12.011
9034	HCMM	607	MPD2	H	1	0.15	1.0079
9035	HCMM	607	MPD2	H1	1	0.15	1.0079
9036	HCMM	607	MPD2	H2	1	0.15	1.0079
9037	HCMM	607	MPD2	H3	1	0.15	1.0079
9038	NC=O	607	MPD2	N	1	-0.547	14.0067
9039	HNCO	607	MPD2	H5	1	0.37	1.0079
9040	NC=O	607	MPD2	N1	1	-0.547	14.0067
9041	HNCO	607	MPD2	H7	1	0.37	1.0079
9042	CB	608	TMC3	C1	1	0.0862	12.011
9043	CB	608	TMC3	C2	1	-0.15	12.011
9044	CB	608	TMC3	C3	1	0.0862	12.011
9045	CB	608	TMC3	C4	1	-0.15	12.011
9046	CB	608	TMC3	C5	1	0.0862	12.011
9047	CB	608	TMC3	C6	1	-0.15	12.011
9048	C=O	608	TMC3	C	1	0.5438	12.011
9049	O=C	608	TMC3	O	1	-0.57	15.9994
9050	HCMM	608	TMC3	H	1	0.15	1.0079
9051	HCMM	608	TMC3	H1	1	0.15	1.0079
9052	HCMM	608	TMC3	H2	1	0.15	1.0079
9053	C=O	608	TMC3	C7	1	0.5438	12.011
9054	C=O	608	TMC3	C8	1	0.5438	12.011
9055	O=C	608	TMC3	O1	1	-0.57	15.9994
9056	O=C	608	TMC3	O2	1	-0.57	15.9994
9057	CB	609	TMC3	C1	1	0.0862	12.011
9058	CB	609	TMC3	C2	1	-0.15	12.011
9059	CB	609	TMC3	C3	1	0.0862	12.011
9060	CB	609	TMC3	C4	1	-0.15	12.011
9061	CB	609	TMC3	C5	1	0.0862	12.011
9062	CB	609	TMC3	C6	1	-0.15	12.011
9063	C=O	609	TMC3	C	1	0.5438	12.011
9064	O=C	609	TMC3	O	1	-0.57	15.9994
9065	HCMM	609	TMC3	H	1	0.15	1.0079
9066	HCMM	609	TMC3	H1	1	0.15	1.0079
9067	HCMM	609	TMC3	H2	1	0.15	1.0079
9068	C=O	609	TMC3	C7	1	0.5438	12.011
9069	C=O	609	TMC3	C8	1	0.5438	12.011
9070	O=C	609	TMC3	O1	1	-0.57	15.9994
9071	O=C	609	TMC3	O2	1	-0.57	15.9994
9072	CB	610	TMC3	C1	1	0.0862	12.011
9073	CB	610	TMC3	C2	1	-0.15	12.011
9074	CB	610	TMC3	C3	1	0.0862	12.011
9075	CB	610	TMC3	C4	1	-0.15	12.011
9076	CB	610	TMC3	C5	1	0.0862	12.011
9077	CB	610	TMC3	C6	1	-0.15	12.011
9078	C=O	610	TMC3	C	1	0.5438	12.011
9079	O=C	610	TMC3	O	1	-0.57	15.9994
9080	HCMM	610	TMC3	H	1	0.15	1.0079
9081	HCMM	610	TMC3	H1	1	0.15	1.0079
9082	HCMM	610	TMC3	H2	1	0.15	1.0079
9083	C=O	610	TMC3	C7	1	0.5438	12.011
9084	C=O	610	TMC3	C8	1	0.5438	12.011
9085	O=C	610	TMC3	O1	1	-0.57	15.9994
9086	O=C	610	TMC3	O2	1	-0.57	15.9994
9087	CB	611	MPD2	C	1	-0.15	12.011
9088	CB	611	MPD2	C1	1	0.117	12.011
9089	CB	611	MPD2	C2	1	-0.15	12.011
9090	CB	611	MPD2	C3	1	0.117	12.011
9091	CB	611	MPD2	C4	1	-0.15	12.011
9092	CB	611	MPD2	C5	1	-0.15	12.011
9093	HCMM	611	MPD2	H	1	0.15	1.0079
9094	HCMM	611	MPD2	H1	1	0.15	1.0079
9095	HCMM	611	MPD2	H2	1	0.15	1.0079
9096	HCMM	611	MPD2	H3	1	0.15	1.0079
9097	NC=O	611	MPD2	N	1	-0.547	14.0067
9098	HNCO	611	MPD2	H5	1	0.37	1.0079
9099	NC=O	611	MPD2	N1	1	-0.547	14.0067
9100	HNCO	611	MPD2	H7	1	0.37	1.0079
9101	CB	612	TMC3	C1	1	0.0862	12.011
9102	CB	612	TMC3	C2	1	-0.15	12.011
9103	CB	612	TMC3	C3	1	0.0862	12.011
9104	CB	612	TMC3	C4	1	-0.15	12.011
9105	CB	612	TMC3	C5	1	0.0862	12.011
9106	CB	612	TMC3	C6	1	-0.15	12.011
9107	C=O	612	TMC3	C	1	0.5438	12.011
9108	O=C	612	TMC3	O	1	-0.57	15.9994
9109	HCMM	612	TMC3	H	1	0.15	1.0079
9110	HCMM	612	TMC3	H1	1	0.15	1.0079
9111	HCMM	612	TMC3	H2	1	0.15	1.0079
9112	C=O	612	TMC3	C7	1	0.5438	12.011
9113	C=O	612	TMC3	C8	1	0.5438	12.011
9114	O=C	612	TMC3	O1	1	-0.57	15.9994
9115	O=C	612	TMC3	O2	1	-0.57	15.9994
9116	CB	613	MPD2	C	1	-0.15	12.011
9117	CB	613	MPD2	C1	1	0.117	12.011
9118	CB	613	MPD2	C2	1	-0.15	12.011
9119	CB	613	MPD2	C3	1	0.117	12.011
9120	CB	613	MPD2	C4	1	-0.15	12.011
9121	CB	613	MPD2	C5	1	-0.15	12.011
9122	HCMM	613	MPD2	H	1	0.15	1.0079
9123	HCMM	613	MPD2	H1	1	0.15	1.0079
9124	HCMM	613	MPD2	H2	1	0.15	1.0079
9125	HCMM	613	MPD2	H3	1	0.15	1.0079
9126	NC=O	613	MPD2	N	1	-0.547	14.0067
9127	HNCO	613	MPD2	H5	1	0.37	1.0079
9128	NC=O	613	MPD2	N1	1	-0.547	14.0067
9129	HNCO	613	MPD2	H7	1	0.37	1.0079
9130	CB	614	TMC3	C1	1	0.0862	12.011
9131	CB	614	TMC3	C2	1	-0.15	12.011
9132	CB	614	TMC3	C3	1	0.0862	12.011
9133	CB	614	TMC3	C4	1	-0.15	12.011
9134	CB	614	TMC3	C5	1	0.0862	12.011
9135	CB	614	TMC3	C6	1	-0.15	12.011
9136	C=O	614	TMC3	C	1	0.5438	12.011
9137	O=C	614	TMC3	O	1	-0.57	15.9994
9138	HCMM	614	TMC3	H	1	0.15	1.0079
9139	HCMM	614	TMC3	H1	1	0.15	1.0079
9140	HCMM	614	TMC3	H2	1	0.15	1.0079
9141	C=O	614	TMC3	C7	1	0.5438	12.011
9142	C=O	614	TMC3	C8	1	0.5438	12.011
9143	O=C	614	TMC3	O1	1	-0.57	15.9994
9144	O=C	614	TMC3	O2	1	-0.57	15.9994
9145	CB	615	MPD2	C	1	-0.15	12.011
9146	CB	615	MPD2	C1	1	0.117	12.011
9147	CB	615	MPD2	C2	1	-0.15	12.011
9148	CB	615	MPD2	C3	1	0.117	12.011
9149	CB	615	MPD2	C4	1	-0.15	12.011
9150	CB	615	MPD2	C5	1	-0.15	12.011
9151	HCMM	615	MPD2	H	1	0.15	1.0079
9152	HCMM	615	MPD2	H1	1	0.15	1.0079
9153	HCMM	615	MPD2	H2	1	0.15	1.0079
9154	HCMM	615	MPD2	H3	1	0.15	1.0079
9155	NC=O	615	MPD2	N	1	-0.547	14.0067
9156	HNCO	615	MPD2	H5	1	0.37	1.0079
9157	NC=O	615	MPD2	N1	1	-0.547	14.0067
9158	HNCO	615	MPD2	H7	1	0.37	1.0079
9159	CB	616	TMC3	C1	1	0.0862	12.011
9160	CB	616	TMC3	C2	1	-0.15	12.011
9161	CB	616	TMC3	C3	1	0.0862	12.011
9162	CB	616	TMC3	C4	1	-0.15	12.011
9163	CB	616	TMC3	C5	1	0.0862	12.011
9164	CB	616	TMC3	C6	1	-0.15	12.011
9165	C=O	616	TMC3	C	1	0.5438	12.011
9166	O=C	616	TMC3	O	1	-0.57	15.9994
9167	HCMM	616	TMC3	H	1	0.15	1.0079
9168	HCMM	616	TMC3	H1	1	0.15	1.0079
9169	HCMM	616	TMC3	H2	1	0.15	1.0079
9170	C=O	616	TMC3	C7	1	0.5438	12.011
9171	C=O	616	TMC3	C8	1	0.5438	12.011
9172	O=C	616	TMC3	O1	1	-0.57	15.9994
9173	O=C	616	TMC3	O2	1	-0.57	15.9994
9174	CB	617	MPD2	C	1	-0.15	12.011
9175	CB	617	MPD2	C1	1	0.117	12.011
9176	CB	617	MPD2	C2	1	-0.15	12.011
9177	CB	617	MPD2	C3	1	0.117	12.011
9178	CB	617	MPD2	C4	1	-0.15	12.011
9179	CB	617	MPD2	C5	1	-0.15	12.011
9180	HCMM	617	MPD2	H	1	0.15	1.0079
9181	HCMM	617	MPD2	H1	1	0.15	1.0079
9182	HCMM	617	MPD2	H2	1	0.15	1.0079
9183	HCMM	617	MPD2	H3	1	0.15	1.0079
9184	NC=O	617	MPD2	N	1	-0.547	14.0067
9185	HNCO	617	MPD2	H5	1	0.37	1.0079
9186	NC=O	617	MPD2	N1	1	-0.547	14.0067
9187	HNCO	617	MPD2	H7	1	0.37	1.0079
9188	CB	618	TMC3	C1	1	0.0862	12.011
9189	CB	618	TMC3	C2	1	-0.15	12.011
9190	CB	618	TMC3	C3	1	0.0862	12.011
9191	CB	618	TMC3	C4	1	-0.15	12.011
9192	CB	618	TMC3	C5	1	0.0862	12.011
9193	CB	618	TMC3	C6	1	-0.15	12.011
9194	C=O	618	TMC3	C	1	0.5438	12.011
9195	O=C	618	TMC3	O	1	-0.57	15.9994
9196	HCMM	618	TMC3	H	1	0.15	1.0079
9197	HCMM	618	TMC3	H1	1	0.15	1.0079
9198	HCMM	618	TMC3	H2	1	0.15	1.0079
9199	C=O	618	TMC3	C7	1	0.5438	12.011
9200	C=O	618	TMC3	C8	1	0.5438	12.011
9201	O=C	618	TMC3	O1	1	-0.57	15.9994
9202	O=C	618	TMC3	O2	1	-0.57	15.9994
9203	CB	619	MPD2	C	1	-0.15	12.011
9204	CB	619	MPD2	C1	1	0.117	12.011
9205	CB	619	MPD2	C2	1	-0.15	12.011
9206	CB	619	MPD2	C3	1	0.117	12.011
9207	CB	619	MPD2	C4	1	-0.15	12.011
9208	CB	619	MPD2	C5	1	-0.15	12.011
9209	HCMM	619	MPD2	H	1	0.15	1.0079
9210	HCMM	619	MPD2	H1	1	0.15	1.0079
9211	HCMM	619	MPD2	H2	1	0.15	1.0079
9212	HCMM	619	MPD2	H3	1	0.15	1.0079
9213	NC=O	619	MPD2	N	1	-0.547	14.0067
9214	HNCO	619	MPD2	H5	1	0.37	1.0079
9215	NC=O	619	MPD2	N1	1	-0.547	14.0067
9216	HNCO	619	MPD2	H7	1	0.37	1.0079
9217	CB	620	TMC3	C1	1	0.0862	12.011
9218	CB	620	TMC3	C2	1	-0.15	12.011
9219	CB	620	TMC3	C3	1	0.0862	12.011
9220	CB	620	TMC3	C4	1	-0.15	12.011
9221	CB	620	TMC3	C5	1	0.0862	12.011
9222	CB	620	TMC3	C6	1	-0.15	12.011
9223	C=O	620	TMC3	C	1	0.5438	12.011
9224	O=C	620	TMC3	O	1	-0.57	15.9994
9225	HCMM	620	TMC3	H	1	0.15	1.0079
9226	HCMM	620	TMC3	H1	1	0.15	1.0079
9227	HCMM	620	TMC3	H2	1	0.15	1.0079
9228	C=O	620	TMC3	C7	1	0.5438	12.011
9229	C=O	620	TMC3	C8	1	0.5438	12.011
9230	O=C	620	TMC3	O1	1	-0.57	15.9994
9231	O=C	620	TMC3	O2	1	-0.57	15.9994
9232	CB	621	MPD2	C	1	-0.15	12.011
9233	CB	621	MPD2	C1	1	0.117	12.011
9234	CB	621	MPD2	C2	1	-0.15	12.011
9235	CB	621	MPD2	C3	1	0.117	12.011
9236	CB	621	MPD2	C4	1	-0.15	12.011
9237	CB	621	MPD2	C5	1	-0.15	12.011
9238	HCMM	621	MPD2	H	1	0.15	1.0079
9239	HCMM	621	MPD2	H1	1	0.15	1.0079
9240	HCMM	621	MPD2	H2	1	0.15	1.0079
9241	HCMM	621	MPD2	H3	1	0.15	1.0079
9242	NC=O	621	MPD2	N	1	-0.547	14.0067
9243	HNCO	621	MPD2	H5	1	0.37	1.0079
9244	NC=O	621	MPD2	N1	1	-0.547	14.0067
9245	HNCO	621	MPD2	H7	1	0.37	1.0079
9246	CB	622	TMC3	C1	1	0.0862	12.011
9247	CB	622	TMC3	C2	1	-0.15	12.011
9248	CB	622	TMC3	C3	1	0.0862	12.011
9249	CB	622	TMC3	C4	1	-0.15	12.011
9250	CB	622	TMC3	C5	1	0.0862	12.011
9251	CB	622	TMC3	C6	1	-0.15	12.011
9252	C=O	622	TMC3	C	1	0.5438	12.011
9253	O=C	622	TMC3	O	1	-0.57	15.9994
9254	HCMM	622	TMC3	H	1	0.15	1.0079
9255	HCMM	622	TMC3	H1	1	0.15	1.0079
9256	HCMM	622	TMC3	H2	1	0.15	1.0079
9257	C=O	622	TMC3	C7	1	0.5438	12.011
9258	C=O	622	TMC3	C8	1	0.5438	12.011
9259	O=C	622	TMC3	O1	1	-0.57	15.9994
9260	O=C	622	TMC3	O2	1	-0.57	15.9994
9261	CB	623	MPD2	C	1	-0.15	12.011
9262	CB	623	MPD2	C1	1	0.117	12.011
9263	CB	623	MPD2	C2	1	-0.15	12.011
9264	CB	623	MPD2	C3	1	0.117	12.011
9265	CB	623	MPD2	C4	1	-0.15	12.011
9266	CB	623	MPD2	C5	1	-0.15	12.011
9267	HCMM	623	MPD2	H	1	0.15	1.0079
9268	HCMM	623	MPD2	H1	1	0.15	1.0079
9269	HCMM	623	MPD2	H2	1	0.15	1.0079
9270	HCMM	623	MPD2	H3	1	0.15	1.0079
9271	NC=O	623	MPD2	N	1	-0.547	14.0067
9272	HNCO	623	MPD2	H5	1	0.37	1.0079
9273	NC=O	623	MPD2	N1	1	-0.547	14.0067
9274	HNCO	623	MPD2	H7	1	0.37	1.0079
9275	CB	624	TMC3	C1	1	0.0862	12.011
9276	CB	624	TMC3	C2	1	-0.15	12.011
9277	CB	624	TMC3	C3	1	0.0862	12.011
9278	CB	624	TMC3	C4	1	-0.15	12.011
9279	CB	624	TMC3	C5	1	0.0862	12.011
9280	CB	624	TMC3	C6	1	-0.15	12.011
9281	C=O	624	TMC3	C	1	0.5438	12.011
9282	O=C	624	TMC3	O	1	-0.57	15.9994
9283	HCMM	624	TMC3	H	1	0.15	1.0079
9284	HCMM	624	TMC3	H1	1	0.15	1.0079
9285	HCMM	624	TMC3	H2	1	0.15	1.0079
9286	C=O	624	TMC3	C7	1	0.5438	12.011
9287	C=O	624	TMC3	C8	1	0.5438	12.011
9288	O=C	624	TMC3	O1	1	-0.57	15.9994
9289	O=C	624	TMC3	O2	1	-0.57	15.9994
9290	CB	625	MPD2	C	1	-0.15	12.011
9291	CB	625	MPD2	C1	1	0.117	12.011
9292	CB	625	MPD2	C2	1	-0.15	12.011
9293	CB	625	MPD2	C3	1	0.117	12.011
9294	CB	625	MPD2	C4	1	-0.15	12.011
9295	CB	625	MPD2	C5	1	-0.15	12.011
9296	HCMM	625	MPD2	H	1	0.15	1.0079
9297	HCMM	625	MPD2	H1	1	0.15	1.0079
9298	HCMM	625	MPD2	H2	1	0.15	1.0079
9299	HCMM	625	MPD2	H3	1	0.15	1.0079
9300	NC=O	625	MPD2	N	1	-0.547	14.0067
9301	HNCO	625	MPD2	H5	1	0.37	1.0079
9302	NC=O	625	MPD2	N1	1	-0.547	14.0067
9303	HNCO	625	MPD2	H7	1	0.37	1.0079
9304	CB	626	TMC3	C1	1	0.0862	12.011
9305	CB	626	TMC3	C2	1	-0.15	12.011
9306	CB	626	TMC3	C3	1	0.0862	12.011
9307	CB	626	TMC3	C4	1	-0.15	12.011
9308	CB	626	TMC3	C5	1	0.0862	12.011
9309	CB	626	TMC3	C6	1	-0.15	12.011
9310	C=O	626	TMC3	C	1	0.5438	12.011
9311	O=C	626	TMC3	O	1	-0.57	15.9994
9312	HCMM	626	TMC3	H	1	0.15	1.0079
9313	HCMM	626	TMC3	H1	1	0.15	1.0079
9314	HCMM	626	TMC3	H2	1	0.15	1.0079
9315	C=O	626	TMC3	C7	1	0.5438	12.011
9316	C=O	626	TMC3	C8	1	0.5438	12.011
9317	O=C	626	TMC3	O1	1	-0.57	15.9994
9318	O=C	626	TMC3	O2	1	-0.57	15.9994
9319	CB	627	MPD2	C	1	-0.15	12.011
9320	CB	627	MPD2	C1	1	0.117	12.011
9321	CB	627	MPD2	C2	1	-0.15	12.011
9322	CB	627	MPD2	C3	1	0.117	12.011
9323	CB	627	MPD2	C4	1	-0.15	12.011
9324	CB	627	MPD2	C5	1	-0.15	12.011
9325	HCMM	627	MPD2	H	1	0.15	1.0079
9326	HCMM	627	MPD2	H1	1	0.15	1.0079
9327	HCMM	627	MPD2	H2	1	0.15	1.0079
9328	HCMM	627	MPD2	H3	1	0.15	1.0079
9329	NC=O	627	MPD2	N	1	-0.547	14.0067
9330	HNCO	627	MPD2	H5	1	0.37	1.0079
9331	NC=O	627	MPD2	N1	1	-0.547	14.0067
9332	HNCO	627	MPD2	H7	1	0.37	1.0079
9333	CB	628	TMC3	C1	1	0.0862	12.011
9334	CB	628	TMC3	C2	1	-0.15	12.011
9335	CB	628	TMC3	C3	1	0.0862	12.011
9336	CB	628	TMC3	C4	1	-0.15	12.011
9337	CB	628	TMC3	C5	1	0.0862	12.011
9338	CB	628	TMC3	C6	1	-0.15	12.011
9339	C=O	628	TMC3	C	1	0.5438	12.011
9340	O=C	628	TMC3	O	1	-0.57	15.9994
9341	HCMM	628	TMC3	H	1	0.15	1.0079
9342	HCMM	628	TMC3	H1	1	0.15	1.0079
9343	HCMM	628	TMC3	H2	1	0.15	1.0079
9344	C=O	628	TMC3	C7	1	0.5438	12.011
9345	C=O	628	TMC3	C8	1	0.5438	12.011
9346	O=C	628	TMC3	O1	1	-0.57	15.9994
9347	O=C	628	TMC3	O2	1	-0.57	15.9994
9348	CB	629	MPD2	C	1	-0.15	12.011
9349	CB	629	MPD2	C1	1	0.117	12.011
9350	CB	629	MPD2	C2	1	-0.15	12.011
9351	CB	629	MPD2	C3	1	0.117	12.011
9352	CB	629	MPD2	C4	1	-0.15	12.011
9353	CB	629	MPD2	C5	1	-0.15	12.011
9354	HCMM	629	MPD2	H	1	0.15	1.0079
9355	HCMM	629	MPD2	H1	1	0.15	1.0079
9356	HCMM	629	MPD2	H2	1	0.15	1.0079
9357	HCMM	629	MPD2	H3	1	0.15	1.0079
9358	NC=O	629	MPD2	N	1	-0.547	14.0067
9359	HNCO	629	MPD2	H5	1	0.37	1.0079
9360	NC=O	629	MPD2	N1	1	-0.547	14.0067
9361	HNCO	629	MPD2	H7	1	0.37	1.0079
9362	CB	630	TMC3	C1	1	0.0862	12.011
9363	CB	630	TMC3	C2	1	-0.15	12.011
9364	CB	630	TMC3	C3	1	0.0862	12.011
9365	CB	630	TMC3	C4	1	-0.15	12.011
9366	CB	630	TMC3	C5	1	0.0862	12.011
9367	CB	630	TMC3	C6	1	-0.15	12.011
9368	C=O	630	TMC3	C	1	0.5438	12.011
9369	O=C	630	TMC3	O	1	-0.57	15.9994
9370	HCMM	630	TMC3	H	1	0.15	1.0079
9371	HCMM	630	TMC3	H1	1	0.15	1.0079
9372	HCMM	630	TMC3	H2	1	0.15	1.0079
9373	C=O	630	TMC3	C7	1	0.5438	12.011
9374	C=O	630	TMC3	C8	1	0.5438	12.011
9375	O=C	630	TMC3	O1	1	-0.57	15.9994
9376	O=C	630	TMC3	O2	1	-0.57	15.9994
9377	CB	631	MPD2	C	1	-0.15	12.011
9378	CB	631	MPD2	C1	1	0.117	12.011
9379	CB	631	MPD2	C2	1	-0.15	12.011
9380	CB	631	MPD2	C3	1	0.117	12.011
9381	CB	631	MPD2	C4	1	-0.15	12.011
9382	CB	631	MPD2	C5	1	-0.15	12.011
9383	HCMM	631	MPD2	H	1	0.15	1.0079
9384	HCMM	631	MPD2	H1	1	0.15	1.0079
9385	HCMM	631	MPD2	H2	1	0.15	1.0079
9386	HCMM	631	MPD2	H3	1	0.15	1.0079
9387	NC=O	631	MPD2	N	1	-0.547	14.0067
9388	HNCO	631	MPD2	H5	1	0.37	1.0079
9389	NC=O	631	MPD2	N1	1	-0.547	14.0067
9390	HNCO	631	MPD2	H7	1	0.37	1.0079
9391	CB	632	TMC3	C1	1	0.0862	12.011
9392	CB	632	TMC3	C2	1	-0.15	12.011
9393	CB	632	TMC3	C3	1	0.0862	12.011
9394	CB	632	TMC3	C4	1	-0.15	12.011
9395	CB	632	TMC3	C5	1	0.0862	12.011
9396	CB	632	TMC3	C6	1	-0.15	12.011
9397	C=O	632	TMC3	C	1	0.5438	12.011
9398	O=C	632	TMC3	O	1	-0.57	15.9994
9399	HCMM	632	TMC3	H	1	0.15	1.0079
9400	HCMM	632	TMC3	H1	1	0.15	1.0079
9401	HCMM	632	TMC3	H2	1	0.15	1.0079
9402	C=O	632	TMC3	C7	1	0.5438	12.011
9403	C=O	632	TMC3	C8	1	0.5438	12.011
9404	O=C	632	TMC3	O1	1	-0.57	15.9994
9405	O=C	632	TMC3	O2	1	-0.57	15.9994
9406	CB	633	MPD2	C	1	-0.15	12.011
9407	CB	633	MPD2	C1	1	0.117	12.011
9408	CB	633	MPD2	C2	1	-0.15	12.011
9409	CB	633	MPD2	C3	1	0.117	12.011
9410	CB	633	MPD2	C4	1	-0.15	12.011
9411	CB	633	MPD2	C5	1	-0.15	12.011
9412	HCMM	633	MPD2	H	1	0.15	1.0079
9413	HCMM	633	MPD2	H1	1	0.15	1.0079
9414	HCMM	633	MPD2	H2	1	0.15	1.0079
9415	HCMM	633	MPD2	H3	1	0.15	1.0079
9416	NC=O	633	MPD2	N	1	-0.547	14.0067
9417	HNCO	633	MPD2	H5	1	0.37	1.0079
9418	NC=O	633	MPD2	N1	1	-0.547	14.0067
9419	HNCO	633	MPD2	H7	1	0.37	1.0079
9420	CB	634	TMC3	C1	1	0.0862	12.011
9421	CB	634	TMC3	C2	1	-0.15	12.011
9422	CB	634	TMC3	C3	1	0.0862	12.011
9423	CB	634	TMC3	C4	1	-0.15	12.011
9424	CB	634	TMC3	C5	1	0.0862	12.011
9425	CB	634	TMC3	C6	1	-0.15	12.011
9426	C=O	634	TMC3	C	1	0.5438	12.011
9427	O=C	634	TMC3	O	1	-0.57	15.9994
9428	HCMM	634	TMC3	H	1	0.15	1.0079
9429	HCMM	634	TMC3	H1	1	0.15	1.0079
9430	HCMM	634	TMC3	H2	1	0.15	1.0079
9431	C=O	634	TMC3	C7	1	0.5438	12.011
9432	C=O	634	TMC3	C8	1	0.5438	12.011
9433	O=C	634	TMC3	O1	1	-0.57	15.9994
9434	O=C	634	TMC3	O2	1	-0.57	15.9994
9435	CB	635	TMC3	C1	1	0.0862	12.011
9436	CB	635	TMC3	C2	1	-0.15	12.011
9437	CB	635	TMC3	C3	1	0.0862	12.011
9438	CB	635	TMC3	C4	1	-0.15	12.011
9439	CB	635	TMC3	C5	1	0.0862	12.011
9440	CB	635	TMC3	C6	1	-0.15	12.011
9441	C=O	635	TMC3	C	1	0.5438	12.011
9442	O=C	635	TMC3	O	1	-0.57	15.9994
9443	HCMM	635	TMC3	H	1	0.15	1.0079
9444	HCMM	635	TMC3	H1	1	0.15	1.0079
9445	HCMM	635	TMC3	H2	1	0.15	1.0079
9446	C=O	635	TMC3	C7	1	0.5438	12.011
9447	C=O	635	TMC3	C8	1	0.5438	12.011
9448	O=C	635	TMC3	O1	1	-0.57	15.9994
9449	O=C	635	TMC3	O2	1	-0.57	15.9994
9450	CB	636	MPD2	C	1	-0.15	12.011
9451	CB	636	MPD2	C1	1	0.117	12.011
9452	CB	636	MPD2	C2	1	-0.15	12.011
9453	CB	636	MPD2	C3	1	0.117	12.011
9454	CB	636	MPD2	C4	1	-0.15	12.011
9455	CB	636	MPD2	C5	1	-0.15	12.011
9456	HCMM	636	MPD2	H	1	0.15	1.0079
9457	HCMM	636	MPD2	H1	1	0.15	1.0079
9458	HCMM	636	MPD2	H2	1	0.15	1.0079
9459	HCMM	636	MPD2	H3	1	0.15	1.0079
9460	NC=O	636	MPD2	N	1	-0.547	14.0067
9461	HNCO	636	MPD2	H5	1	0.37	1.0079
9462	NC=O	636	MPD2	N1	1	-0.547	14.0067
9463	HNCO	636	MPD2	H7	1	0.37	1.0079
9464	CB	637	TMC3	C1	1	0.0862	12.011
9465	CB	637	TMC3	C2	1	-0.15	12.011
9466	CB	637	TMC3	C3	1	0.0862	12.011
9467	CB	637	TMC3	C4	1	-0.15	12.011
9468	CB	637	TMC3	C5	1	0.0862	12.011
9469	CB	637	TMC3	C6	1	-0.15	12.011
9470	C=O	637	TMC3	C	1	0.5438	12.011
9471	O=C	637	TMC3	O	1	-0.57	15.9994
9472	HCMM	637	TMC3	H	1	0.15	1.0079
9473	HCMM	637	TMC3	H1	1	0.15	1.0079
9474	HCMM	637	TMC3	H2	1	0.15	1.0079
9475	C=O	637	TMC3	C7	1	0.5438	12.011
9476	C=O	637	TMC3	C8	1	0.5438	12.011
9477	O=C	637	TMC3	O1	1	-0.57	15.9994
9478	O=C	637	TMC3	O2	1	-0.57	15.9994
9479	CB	638	MPD2	C	1	-0.15	12.011
9480	CB	638	MPD2	C1	1	0.117	12.011
9481	CB	638	MPD2	C2	1	-0.15	12.011
9482	CB	638	MPD2	C3	1	0.117	12.011
9483	CB	638	MPD2	C4	1	-0.15	12.011
9484	CB	638	MPD2	C5	1	-0.15	12.011
9485	HCMM	638	MPD2	H	1	0.15	1.0079
9486	HCMM	638	MPD2	H1	1	0.15	1.0079
9487	HCMM	638	MPD2	H2	1	0.15	1.0079
9488	HCMM	638	MPD2	H3	1	0.15	1.0079
9489	NC=O	638	MPD2	N	1	-0.547	14.0067
9490	HNCO	638	MPD2	H5	1	0.37	1.0079
9491	NC=O	638	MPD2	N1	1	-0.547	14.0067
9492	HNCO	638	MPD2	H7	1	0.37	1.0079
9493	CB	639	TMC3	C1	1	0.0862	12.011
9494	CB	639	TMC3	C2	1	-0.15	12.011
9495	CB	639	TMC3	C3	1	0.0862	12.011
9496	CB	639	TMC3	C4	1	-0.15	12.011
9497	CB	639	TMC3	C5	1	0.0862	12.011
9498	CB	639	TMC3	C6	1	-0.15	12.011
9499	C=O	639	TMC3	C	1	0.5438	12.011
9500	O=C	639	TMC3	O	1	-0.57	15.9994
9501	HCMM	639	TMC3	H	1	0.15	1.0079
9502	HCMM	639	TMC3	H1	1	0.15	1.0079
9503	HCMM	639	TMC3	H2	1	0.15	1.0079
9504	C=O	639	TMC3	C7	1	0.5438	12.011
9505	C=O	639	TMC3	C8	1	0.5438	12.011
9506	O=C	639	TMC3	O1	1	-0.57	15.9994
9507	O=C	639	TMC3	O2	1	-0.57	15.9994
9508	CB	640	MPD2	C	1	-0.15	12.011
9509	CB	640	MPD2	C1	1	0.117	12.011
9510	CB	640	MPD2	C2	1	-0.15	12.011
9511	CB	640	MPD2	C3	1	0.117	12.011
9512	CB	640	MPD2	C4	1	-0.15	12.011
9513	CB	640	MPD2	C5	1	-0.15	12.011
9514	HCMM	640	MPD2	H	1	0.15	1.0079
9515	HCMM	640	MPD2	H1	1	0.15	1.0079
9516	HCMM	640	MPD2	H2	1	0.15	1.0079
9517	HCMM	640	MPD2	H3	1	0.15	1.0079
9518	NC=O	640	MPD2	N	1	-0.547	14.0067
9519	HNCO	640	MPD2	H5	1	0.37	1.0079
9520	NC=O	640	MPD2	N1	1	-0.547	14.0067
9521	HNCO	640	MPD2	H7	1	0.37	1.0079
9522	CB	641	TMC3	C1	1	0.0862	12.011
9523	CB	641	TMC3	C2	1	-0.15	12.011
9524	CB	641	TMC3	C3	1	0.0862	12.011
9525	CB	641	TMC3	C4	1	-0.15	12.011
9526	CB	641	TMC3	C5	1	0.0862	12.011
9527	CB	641	TMC3	C6	1	-0.15	12.011
9528	C=O	641	TMC3	C	1	0.5438	12.011
9529	O=C	641	TMC3	O	1	-0.57	15.9994
9530	HCMM	641	TMC3	H	1	0.15	1.0079
9531	HCMM	641	TMC3	H1	1	0.15	1.0079
9532	HCMM	641	TMC3	H2	1	0.15	1.0079
9533	C=O	641	TMC3	C7	1	0.5438	12.011
9534	C=O	641	TMC3	C8	1	0.5438	12.011
9535	O=C	641	TMC3	O1	1	-0.57	15.9994
9536	O=C	641	TMC3	O2	1	-0.57	15.9994
9537	CB	642	TMC3	C1	1	0.0862	12.011
9538	CB	642	TMC3	C2	1	-0.15	12.011
9539	CB	642	TMC3	C3	1	0.0862	12.011
9540	CB	642	TMC3	C4	1	-0.15	12.011
9541	CB	642	TMC3	C5	1	0.0862	12.011
9542	CB	642	TMC3	C6	1	-0.15	12.011
9543	C=O	642	TMC3	C	1	0.5438	12.011
9544	O=C	642	TMC3	O	1	-0.57	15.9994
9545	HCMM	642	TMC3	H	1	0.15	1.0079
9546	HCMM	642	TMC3	H1	1	0.15	1.0079
9547	HCMM	642	TMC3	H2	1	0.15	1.0079
9548	C=O	642	TMC3	C7	1	0.5438	12.011
9549	C=O	642	TMC3	C8	1	0.5438	12.011
9550	O=C	642	TMC3	O1	1	-0.57	15.9994
9551	O=C	642	TMC3	O2	1	-0.57	15.9994
9552	CB	643	TMC3	C1	1	0.0862	12.011
9553	CB	643	TMC3	C2	1	-0.15	12.011
9554	CB	643	TMC3	C3	1	0.0862	12.011
9555	CB	643	TMC3	C4	1	-0.15	12.011
9556	CB	643	TMC3	C5	1	0.0862	12.011
9557	CB	643	TMC3	C6	1	-0.15	12.011
9558	C=O	643	TMC3	C	1	0.5438	12.011
9559	O=C	643	TMC3	O	1	-0.57	15.9994
9560	HCMM	643	TMC3	H	1	0.15	1.0079
9561	HCMM	643	TMC3	H1	1	0.15	1.0079
9562	HCMM	643	TMC3	H2	1	0.15	1.0079
9563	C=O	643	TMC3	C7	1	0.5438	12.011
9564	C=O	643	TMC3	C8	1	0.5438	12.011
9565	O=C	643	TMC3	O1	1	-0.57	15.9994
9566	O=C	643	TMC3	O2	1	-0.57	15.9994
9567	CB	644	MPD2	C	1	-0.15	12.011
9568	CB	644	MPD2	C1	1	0.117	12.011
9569	CB	644	MPD2	C2	1	-0.15	12.011
9570	CB	644	MPD2	C3	1	0.117	12.011
9571	CB	644	MPD2	C4	1	-0.15	12.011
9572	CB	644	MPD2	C5	1	-0.15	12.011
9573	HCMM	644	MPD2	H	1	0.15	1.0079
9574	HCMM	644	MPD2	H1	1	0.15	1.0079
9575	HCMM	644	MPD2	H2	1	0.15	1.0079
9576	HCMM	644	MPD2	H3	1	0.15	1.0079
9577	NC=O	644	MPD2	N	1	-0.547	14.0067
9578	HNCO	644	MPD2	H5	1	0.37	1.0079
9579	NC=O	644	MPD2	N1	1	-0.547	14.0067
9580	HNCO	644	MPD2	H7	1	0.37	1.0079
9581	CB	645	TMC3	C1	1	0.0862	12.011
9582	CB	645	TMC3	C2	1	-0.15	12.011
9583	CB	645	TMC3	C3	1	0.0862	12.011
9584	CB	645	TMC3	C4	1	-0.15	12.011
9585	CB	645	TMC3	C5	1	0.0862	12.011
9586	CB	645	TMC3	C6	1	-0.15	12.011
9587	C=O	645	TMC3	C	1	0.5438	12.011
9588	O=C	645	TMC3	O	1	-0.57	15.9994
9589	HCMM	645	TMC3	H	1	0.15	1.0079
9590	HCMM	645	TMC3	H1	1	0.15	1.0079
9591	HCMM	645	TMC3	H2	1	0.15	1.0079
9592	C=O	645	TMC3	C7	1	0.5438	12.011
9593	C=O	645	TMC3	C8	1	0.5438	12.011
9594	O=C	645	TMC3	O1	1	-0.57	15.9994
9595	O=C	645	TMC3	O2	1	-0.57	15.9994
9596	CB	646	MPD2	C	1	-0.15	12.011
9597	CB	646	MPD2	C1	1	0.117	12.011
9598	CB	646	MPD2	C2	1	-0.15	12.011
9599	CB	646	MPD2	C3	1	0.117	12.011
9600	CB	646	MPD2	C4	1	-0.15	12.011
9601	CB	646	MPD2	C5	1	-0.15	12.011
9602	HCMM	646	MPD2	H	1	0.15	1.0079
9603	HCMM	646	MPD2	H1	1	0.15	1.0079
9604	HCMM	646	MPD2	H2	1	0.15	1.0079
9605	HCMM	646	MPD2	H3	1	0.15	1.0079
9606	NC=O	646	MPD2	N	1	-0.547	14.0067
9607	HNCO	646	MPD2	H5	1	0.37	1.0079
9608	NC=O	646	MPD2	N1	1	-0.547	14.0067
9609	HNCO	646	MPD2	H7	1	0.37	1.0079
9610	CB	647	TMC3	C1	1	0.0862	12.011
9611	CB	647	TMC3	C2	1	-0.15	12.011
9612	CB	647	TMC3	C3	1	0.0862	12.011
9613	CB	647	TMC3	C4	1	-0.15	12.011
9614	CB	647	TMC3	C5	1	0.0862	12.011
9615	CB	647	TMC3	C6	1	-0.15	12.011
9616	C=O	647	TMC3	C	1	0.5438	12.011
9617	O=C	647	TMC3	O	1	-0.57	15.9994
9618	HCMM	647	TMC3	H	1	0.15	1.0079
9619	HCMM	647	TMC3	H1	1	0.15	1.0079
9620	HCMM	647	TMC3	H2	1	0.15	1.0079
9621	C=O	647	TMC3	C7	1	0.5438	12.011
9622	C=O	647	TMC3	C8	1	0.5438	12.011
9623	O=C	647	TMC3	O1	1	-0.57	15.9994
9624	O=C	647	TMC3	O2	1	-0.57	15.9994
9625	CB	648	TMC3	C1	1	0.0862	12.011
9626	CB	648	TMC3	C2	1	-0.15	12.011
9627	CB	648	TMC3	C3	1	0.0862	12.011
9628	CB	648	TMC3	C4	1	-0.15	12.011
9629	CB	648	TMC3	C5	1	0.0862	12.011
9630	CB	648	TMC3	C6	1	-0.15	12.011
9631	C=O	648	TMC3	C	1	0.5438	12.011
9632	O=C	648	TMC3	O	1	-0.57	15.9994
9633	HCMM	648	TMC3	H	1	0.15	1.0079
9634	HCMM	648	TMC3	H1	1	0.15	1.0079
9635	HCMM	648	TMC3	H2	1	0.15	1.0079
9636	C=O	648	TMC3	C7	1	0.5438	12.011
9637	C=O	648	TMC3	C8	1	0.5438	12.011
9638	O=C	648	TMC3	O1	1	-0.57	15.9994
9639	O=C	648	TMC3	O2	1	-0.57	15.9994
9640	CB	649	TMC3	C1	1	0.0862	12.011
9641	CB	649	TMC3	C2	1	-0.15	12.011
9642	CB	649	TMC3	C3	1	0.0862	12.011
9643	CB	649	TMC3	C4	1	-0.15	12.011
9644	CB	649	TMC3	C5	1	0.0862	12.011
9645	CB	649	TMC3	C6	1	-0.15	12.011
9646	C=O	649	TMC3	C	1	0.5438	12.011
9647	O=C	649	TMC3	O	1	-0.57	15.9994
9648	HCMM	649	TMC3	H	1	0.15	1.0079
9649	HCMM	649	TMC3	H1	1	0.15	1.0079
9650	HCMM	649	TMC3	H2	1	0.15	1.0079
9651	C=O	649	TMC3	C7	1	0.5438	12.011
9652	C=O	649	TMC3	C8	1	0.5438	12.011
9653	O=C	649	TMC3	O1	1	-0.57	15.9994
9654	O=C	649	TMC3	O2	1	-0.57	15.9994
9655	CB	650	TMC3	C1	1	0.0862	12.011
9656	CB	650	TMC3	C2	1	-0.15	12.011
9657	CB	650	TMC3	C3	1	0.0862	12.011
9658	CB	650	TMC3	C4	1	-0.15	12.011
9659	CB	650	TMC3	C5	1	0.0862	12.011
9660	CB	650	TMC3	C6	1	-0.15	12.011
9661	C=O	650	TMC3	C	1	0.5438	12.011
9662	O=C	650	TMC3	O	1	-0.57	15.9994
9663	HCMM	650	TMC3	H	1	0.15	1.0079
9664	HCMM	650	TMC3	H1	1	0.15	1.0079
9665	HCMM	650	TMC3	H2	1	0.15	1.0079
9666	C=O	650	TMC3	C7	1	0.5438	12.011
9667	C=O	650	TMC3	C8	1	0.5438	12.011
9668	O=C	650	TMC3	O1	1	-0.57	15.9994
9669	O=C	650	TMC3	O2	1	-0.57	15.9994
9670	CB	651	MPD2	C	1	-0.15	12.011
9671	CB	651	MPD2	C1	1	0.117	12.011
9672	CB	651	MPD2	C2	1	-0.15	12.011
9673	CB	651	MPD2	C3	1	0.117	12.011
9674	CB	651	MPD2	C4	1	-0.15	12.011
9675	CB	651	MPD2	C5	1	-0.15	12.011
9676	HCMM	651	MPD2	H	1	0.15	1.0079
9677	HCMM	651	MPD2	H1	1	0.15	1.0079
9678	HCMM	651	MPD2	H2	1	0.15	1.0079
9679	HCMM	651	MPD2	H3	1	0.15	1.0079
9680	NC=O	651	MPD2	N	1	-0.547	14.0067
9681	HNCO	651	MPD2	H5	1	0.37	1.0079
9682	NC=O	651	MPD2	N1	1	-0.547	14.0067
9683	HNCO	651	MPD2	H7	1	0.37	1.0079
9684	CB	652	TMC3	C1	1	0.0862	12.011
9685	CB	652	TMC3	C2	1	-0.15	12.011
9686	CB	652	TMC3	C3	1	0.0862	12.011
9687	CB	652	TMC3	C4	1	-0.15	12.011
9688	CB	652	TMC3	C5	1	0.0862	12.011
9689	CB	652	TMC3	C6	1	-0.15	12.011
9690	C=O	652	TMC3	C	1	0.5438	12.011
9691	O=C	652	TMC3	O	1	-0.57	15.9994
9692	HCMM	652	TMC3	H	1	0.15	1.0079
9693	HCMM	652	TMC3	H1	1	0.15	1.0079
9694	HCMM	652	TMC3	H2	1	0.15	1.0079
9695	C=O	652	TMC3	C7	1	0.5438	12.011
9696	C=O	652	TMC3	C8	1	0.5438	12.011
9697	O=C	652	TMC3	O1	1	-0.57	15.9994
9698	O=C	652	TMC3	O2	1	-0.57	15.9994
9699	CB	653	MPD2	C	1	-0.15	12.011
9700	CB	653	MPD2	C1	1	0.117	12.011
9701	CB	653	MPD2	C2	1	-0.15	12.011
9702	CB	653	MPD2	C3	1	0.117	12.011
9703	CB	653	MPD2	C4	1	-0.15	12.011
9704	CB	653	MPD2	C5	1	-0.15	12.011
9705	HCMM	653	MPD2	H	1	0.15	1.0079
9706	HCMM	653	MPD2	H1	1	0.15	1.0079
9707	HCMM	653	MPD2	H2	1	0.15	1.0079
9708	HCMM	653	MPD2	H3	1	0.15	1.0079
9709	NC=O	653	MPD2	N	1	-0.547	14.0067
9710	HNCO	653	MPD2	H5	1	0.37	1.0079
9711	NC=O	653	MPD2	N1	1	-0.547	14.0067
9712	HNCO	653	MPD2	H7	1	0.37	1.0079
9713	CB	654	TMC3	C1	1	0.0862	12.011
9714	CB	654	TMC3	C2	1	-0.15	12.011
9715	CB	654	TMC3	C3	1	0.0862	12.011
9716	CB	654	TMC3	C4	1	-0.15	12.011
9717	CB	654	TMC3	C5	1	0.0862	12.011
9718	CB	654	TMC3	C6	1	-0.15	12.011
9719	C=O	654	TMC3	C	1	0.5438	12.011
9720	O=C	654	TMC3	O	1	-0.57	15.9994
9721	HCMM	654	TMC3	H	1	0.15	1.0079
9722	HCMM	654	TMC3	H1	1	0.15	1.0079
9723	HCMM	654	TMC3	H2	1	0.15	1.0079
9724	C=O	654	TMC3	C7	1	0.5438	12.011
9725	C=O	654	TMC3	C8	1	0.5438	12.011
9726	O=C	654	TMC3	O1	1	-0.57	15.9994
9727	O=C	654	TMC3	O2	1	-0.57	15.9994
9728	CB	655	MPD2	C	1	-0.15	12.011
9729	CB	655	MPD2	C1	1	0.117	12.011
9730	CB	655	MPD2	C2	1	-0.15	12.011
9731	CB	655	MPD2	C3	1	0.117	12.011
9732	CB	655	MPD2	C4	1	-0.15	12.011
9733	CB	655	MPD2	C5	1	-0.15	12.011
9734	HCMM	655	MPD2	H	1	0.15	1.0079
9735	HCMM	655	MPD2	H1	1	0.15	1.0079
9736	HCMM	655	MPD2	H2	1	0.15	1.0079
9737	HCMM	655	MPD2	H3	1	0.15	1.0079
9738	NC=O	655	MPD2	N	1	-0.547	14.0067
9739	HNCO	655	MPD2	H5	1	0.37	1.0079
9740	NC=O	655	MPD2	N1	1	-0.547	14.0067
9741	HNCO	655	MPD2	H7	1	0.37	1.0079
9742	CB	656	TMC3	C1	1	0.0862	12.011
9743	CB	656	TMC3	C2	1	-0.15	12.011
9744	CB	656	TMC3	C3	1	0.0862	12.011
9745	CB	656	TMC3	C4	1	-0.15	12.011
9746	CB	656	TMC3	C5	1	0.0862	12.011
9747	CB	656	TMC3	C6	1	-0.15	12.011
9748	C=O	656	TMC3	C	1	0.5438	12.011
9749	O=C	656	TMC3	O	1	-0.57	15.9994
9750	HCMM	656	TMC3	H	1	0.15	1.0079
9751	HCMM	656	TMC3	H1	1	0.15	1.0079
9752	HCMM	656	TMC3	H2	1	0.15	1.0079
9753	C=O	656	TMC3	C7	1	0.5438	12.011
9754	C=O	656	TMC3	C8	1	0.5438	12.011
9755	O=C	656	TMC3	O1	1	-0.57	15.9994
9756	O=C	656	TMC3	O2	1	-0.57	15.9994
9757	CB	657	TMC3	C1	1	0.0862	12.011
9758	CB	657	TMC3	C2	1	-0.15	12.011
9759	CB	657	TMC3	C3	1	0.0862	12.011
9760	CB	657	TMC3	C4	1	-0.15	12.011
9761	CB	657	TMC3	C5	1	0.0862	12.011
9762	CB	657	TMC3	C6	1	-0.15	12.011
9763	C=O	657	TMC3	C	1	0.5438	12.011
9764	O=C	657	TMC3	O	1	-0.57	15.9994
9765	HCMM	657	TMC3	H	1	0.15	1.0079
9766	HCMM	657	TMC3	H1	1	0.15	1.0079
9767	HCMM	657	TMC3	H2	1	0.15	1.0079
9768	C=O	657	TMC3	C7	1	0.5438	12.011
9769	C=O	657	TMC3	C8	1	0.5438	12.011
9770	O=C	657	TMC3	O1	1	-0.57	15.9994
9771	O=C	657	TMC3	O2	1	-0.57	15.9994
9772	CB	658	MPD2	C	1	-0.15	12.011
9773	CB	658	MPD2	C1	1	0.117	12.011
9774	CB	658	MPD2	C2	1	-0.15	12.011
9775	CB	658	MPD2	C3	1	0.117	12.011
9776	CB	658	MPD2	C4	1	-0.15	12.011
9777	CB	658	MPD2	C5	1	-0.15	12.011
9778	HCMM	658	MPD2	H	1	0.15	1.0079
9779	HCMM	658	MPD2	H1	1	0.15	1.0079
9780	HCMM	658	MPD2	H2	1	0.15	1.0079
9781	HCMM	658	MPD2	H3	1	0.15	1.0079
9782	NC=O	658	MPD2	N	1	-0.547	14.0067
9783	HNCO	658	MPD2	H5	1	0.37	1.0079
9784	NC=O	658	MPD2	N1	1	-0.547	14.0067
9785	HNCO	658	MPD2	H7	1	0.37	1.0079
9786	CB	659	TMC3	C1	1	0.0862	12.011
9787	CB	659	TMC3	C2	1	-0.15	12.011
9788	CB	659	TMC3	C3	1	0.0862	12.011
9789	CB	659	TMC3	C4	1	-0.15	12.011
9790	CB	659	TMC3	C5	1	0.0862	12.011
9791	CB	659	TMC3	C6	1	-0.15	12.011
9792	C=O	659	TMC3	C	1	0.5438	12.011
9793	O=C	659	TMC3	O	1	-0.57	15.9994
9794	HCMM	659	TMC3	H	1	0.15	1.0079
9795	HCMM	659	TMC3	H1	1	0.15	1.0079
9796	HCMM	659	TMC3	H2	1	0.15	1.0079
9797	C=O	659	TMC3	C7	1	0.5438	12.011
9798	C=O	659	TMC3	C8	1	0.5438	12.011
9799	O=C	659	TMC3	O1	1	-0.57	15.9994
9800	O=C	659	TMC3	O2	1	-0.57	15.9994
9801	CB	660	MPD2	C	1	-0.15	12.011
9802	CB	660	MPD2	C1	1	0.117	12.011
9803	CB	660	MPD2	C2	1	-0.15	12.011
9804	CB	660	MPD2	C3	1	0.117	12.011
9805	CB	660	MPD2	C4	1	-0.15	12.011
9806	CB	660	MPD2	C5	1	-0.15	12.011
9807	HCMM	660	MPD2	H	1	0.15	1.0079
9808	HCMM	660	MPD2	H1	1	0.15	1.0079
9809	HCMM	660	MPD2	H2	1	0.15	1.0079
9810	HCMM	660	MPD2	H3	1	0.15	1.0079
9811	NC=O	660	MPD2	N	1	-0.547	14.0067
9812	HNCO	660	MPD2	H5	1	0.37	1.0079
9813	NC=O	660	MPD2	N1	1	-0.547	14.0067
9814	HNCO	660	MPD2	H7	1	0.37	1.0079
9815	CB	661	TMC3	C1	1	0.0862	12.011
9816	CB	661	TMC3	C2	1	-0.15	12.011
9817	CB	661	TMC3	C3	1	0.0862	12.011
9818	CB	661	TMC3	C4	1	-0.15	12.011
9819	CB	661	TMC3	C5	1	0.0862	12.011
9820	CB	661	TMC3	C6	1	-0.15	12.011
9821	C=O	661	TMC3	C	1	0.5438	12.011
9822	O=C	661	TMC3	O	1	-0.57	15.9994
9823	HCMM	661	TMC3	H	1	0.15	1.0079
9824	HCMM	661	TMC3	H1	1	0.15	1.0079
9825	HCMM	661	TMC3	H2	1	0.15	1.0079
9826	C=O	661	TMC3	C7	1	0.5438	12.011
9827	C=O	661	TMC3	C8	1	0.5438	12.011
9828	O=C	661	TMC3	O1	1	-0.57	15.9994
9829	O=C	661	TMC3	O2	1	-0.57	15.9994
9830	CB	662	MPD2	C	1	-0.15	12.011
9831	CB	662	MPD2	C1	1	0.117	12.011
9832	CB	662	MPD2	C2	1	-0.15	12.011
9833	CB	662	MPD2	C3	1	0.117	12.011
9834	CB	662	MPD2	C4	1	-0.15	12.011
9835	CB	662	MPD2	C5	1	-0.15	12.011
9836	HCMM	662	MPD2	H	1	0.15	1.0079
9837	HCMM	662	MPD2	H1	1	0.15	1.0079
9838	HCMM	662	MPD2	H2	1	0.15	1.0079
9839	HCMM	662	MPD2	H3	1	0.15	1.0079
9840	NC=O	662	MPD2	N	1	-0.547	14.0067
9841	HNCO	662	MPD2	H5	1	0.37	1.0079
9842	NC=O	662	MPD2	N1	1	-0.547	14.0067
9843	HNCO	662	MPD2	H7	1	0.37	1.0079
9844	CB	663	TMC3	C1	1	0.0862	12.011
9845	CB	663	TMC3	C2	1	-0.15	12.011
9846	CB	663	TMC3	C3	1	0.0862	12.011
9847	CB	663	TMC3	C4	1	-0.15	12.011
9848	CB	663	TMC3	C5	1	0.0862	12.011
9849	CB	663	TMC3	C6	1	-0.15	12.011
9850	C=O	663	TMC3	C	1	0.5438	12.011
9851	O=C	663	TMC3	O	1	-0.57	15.9994
9852	HCMM	663	TMC3	H	1	0.15	1.0079
9853	HCMM	663	TMC3	H1	1	0.15	1.0079
9854	HCMM	663	TMC3	H2	1	0.15	1.0079
9855	C=O	663	TMC3	C7	1	0.5438	12.011
9856	C=O	663	TMC3	C8	1	0.5438	12.011
9857	O=C	663	TMC3	O1	1	-0.57	15.9994
9858	O=C	663	TMC3	O2	1	-0.57	15.9994
9859	CB	664	MPD2	C	1	-0.15	12.011
9860	CB	664	MPD2	C1	1	0.117	12.011
9861	CB	664	MPD2	C2	1	-0.15	12.011
9862	CB	664	MPD2	C3	1	0.117	12.011
9863	CB	664	MPD2	C4	1	-0.15	12.011
9864	CB	664	MPD2	C5	1	-0.15	12.011
9865	HCMM	664	MPD2	H	1	0.15	1.0079
9866	HCMM	664	MPD2	H1	1	0.15	1.0079
9867	HCMM	664	MPD2	H2	1	0.15	1.0079
9868	HCMM	664	MPD2	H3	1	0.15	1.0079
9869	NC=O	664	MPD2	N	1	-0.547	14.0067
9870	HNCO	664	MPD2	H5	1	0.37	1.0079
9871	NC=O	664	MPD2	N1	1	-0.547	14.0067
9872	HNCO	664	MPD2	H7	1	0.37	1.0079
9873	CB	665	TMC3	C1	1	0.0862	12.011
9874	CB	665	TMC3	C2	1	-0.15	12.011
9875	CB	665	TMC3	C3	1	0.0862	12.011
9876	CB	665	TMC3	C4	1	-0.15	12.011
9877	CB	665	TMC3	C5	1	0.0862	12.011
9878	CB	665	TMC3	C6	1	-0.15	12.011
9879	C=O	665	TMC3	C	1	0.5438	12.011
9880	O=C	665	TMC3	O	1	-0.57	15.9994
9881	HCMM	665	TMC3	H	1	0.15	1.0079
9882	HCMM	665	TMC3	H1	1	0.15	1.0079
9883	HCMM	665	TMC3	H2	1	0.15	1.0079
9884	C=O	665	TMC3	C7	1	0.5438	12.011
9885	C=O	665	TMC3	C8	1	0.5438	12.011
9886	O=C	665	TMC3	O1	1	-0.57	15.9994
9887	O=C	665	TMC3	O2	1	-0.57	15.9994
9888	CB	666	TMC3	C1	1	0.0862	12.011
9889	CB	666	TMC3	C2	1	-0.15	12.011
9890	CB	666	TMC3	C3	1	0.0862	12.011
9891	CB	666	TMC3	C4	1	-0.15	12.011
9892	CB	666	TMC3	C5	1	0.0862	12.011
9893	CB	666	TMC3	C6	1	-0.15	12.011
9894	C=O	666	TMC3	C	1	0.5438	12.011
9895	O=C	666	TMC3	O	1	-0.57	15.9994
9896	HCMM	666	TMC3	H	1	0.15	1.0079
9897	HCMM	666	TMC3	H1	1	0.15	1.0079
9898	HCMM	666	TMC3	H2	1	0.15	1.0079
9899	C=O	666	TMC3	C7	1	0.5438	12.011
9900	C=O	666	TMC3	C8	1	0.5438	12.011
9901	O=C	666	TMC3	O1	1	-0.57	15.9994
9902	O=C	666	TMC3	O2	1	-0.57	15.9994
9903	CB	667	MPD2	C	1	-0.15	12.011
9904	CB	667	MPD2	C1	1	0.117	12.011
9905	CB	667	MPD2	C2	1	-0.15	12.011
9906	CB	667	MPD2	C3	1	0.117	12.011
9907	CB	667	MPD2	C4	1	-0.15	12.011
9908	CB	667	MPD2	C5	1	-0.15	12.011
9909	HCMM	667	MPD2	H	1	0.15	1.0079
9910	HCMM	667	MPD2	H1	1	0.15	1.0079
9911	HCMM	667	MPD2	H2	1	0.15	1.0079
9912	HCMM	667	MPD2	H3	1	0.15	1.0079
9913	NC=O	667	MPD2	N	1	-0.547	14.0067
9914	HNCO	667	MPD2	H5	1	0.37	1.0079
9915	NC=O	667	MPD2	N1	1	-0.547	14.0067
9916	HNCO	667	MPD2	H7	1	0.37	1.0079
9917	CB	668	TMC3	C1	1	0.0862	12.011
9918	CB	668	TMC3	C2	1	-0.15	12.011
9919	CB	668	TMC3	C3	1	0.0862	12.011
9920	CB	668	TMC3	C4	1	-0.15	12.011
9921	CB	668	TMC3	C5	1	0.0862	12.011
9922	CB	668	TMC3	C6	1	-0.15	12.011
9923	C=O	668	TMC3	C	1	0.5438	12.011
9924	O=C	668	TMC3	O	1	-0.57	15.9994
9925	HCMM	668	TMC3	H	1	0.15	1.0079
9926	HCMM	668	TMC3	H1	1	0.15	1.0079
9927	HCMM	668	TMC3	H2	1	0.15	1.0079
9928	C=O	668	TMC3	C7	1	0.5438	12.011
9929	C=O	668	TMC3	C8	1	0.5438	12.011
9930	O=C	668	TMC3	O1	1	-0.57	15.9994
9931	O=C	668	TMC3	O2	1	-0.57	15.9994
9932	CB	669	TMC3	C1	1	0.0862	12.011
9933	CB	669	TMC3	C2	1	-0.15	12.011
9934	CB	669	TMC3	C3	1	0.0862	12.011
9935	CB	669	TMC3	C4	1	-0.15	12.011
9936	CB	669	TMC3	C5	1	0.0862	12.011
9937	CB	669	TMC3	C6	1	-0.15	12.011
9938	C=O	669	TMC3	C	1	0.5438	12.011
9939	O=C	669	TMC3	O	1	-0.57	15.9994
9940	HCMM	669	TMC3	H	1	0.15	1.0079
9941	HCMM	669	TMC3	H1	1	0.15	1.0079
9942	HCMM	669	TMC3	H2	1	0.15	1.0079
9943	C=O	669	TMC3	C7	1	0.5438	12.011
9944	C=O	669	TMC3	C8	1	0.5438	12.011
9945	O=C	669	TMC3	O1	1	-0.57	15.9994
9946	O=C	669	TMC3	O2	1	-0.57	15.9994
9947	CB	670	MPD2	C	1	-0.15	12.011
9948	CB	670	MPD2	C1	1	0.117	12.011
9949	CB	670	MPD2	C2	1	-0.15	12.011
9950	CB	670	MPD2	C3	1	0.117	12.011
9951	CB	670	MPD2	C4	1	-0.15	12.011
9952	CB	670	MPD2	C5	1	-0.15	12.011
9953	HCMM	670	MPD2	H	1	0.15	1.0079
9954	HCMM	670	MPD2	H1	1	0.15	1.0079
9955	HCMM	670	MPD2	H2	1	0.15	1.0079
9956	HCMM	670	MPD2	H3	1	0.15	1.0079
9957	NC=O	670	MPD2	N	1	-0.547	14.0067
9958	HNCO	670	MPD2	H5	1	0.37	1.0079
9959	NC=O	670	MPD2	N1	1	-0.547	14.0067
9960	HNCO	670	MPD2	H7	1	0.37	1.0079
9961	CB	671	TMC3	C1	1	0.0862	12.011
9962	CB	671	TMC3	C2	1	-0.15	12.011
9963	CB	671	TMC3	C3	1	0.0862	12.011
9964	CB	671	TMC3	C4	1	-0.15	12.011
9965	CB	671	TMC3	C5	1	0.0862	12.011
9966	CB	671	TMC3	C6	1	-0.15	12.011
9967	C=O	671	TMC3	C	1	0.5438	12.011
9968	O=C	671	TMC3	O	1	-0.57	15.9994
9969	HCMM	671	TMC3	H	1	0.15	1.0079
9970	HCMM	671	TMC3	H1	1	0.15	1.0079
9971	HCMM	671	TMC3	H2	1	0.15	1.0079
9972	C=O	671	TMC3	C7	1	0.5438	12.011
9973	C=O	671	TMC3	C8	1	0.5438	12.011
9974	O=C	671	TMC3	O1	1	-0.57	15.9994
9975	O=C	671	TMC3	O2	1	-0.57	15.9994
9976	CB	672	MPD2	C	1	-0.15	12.011
9977	CB	672	MPD2	C1	1	0.117	12.011
9978	CB	672	MPD2	C2	1	-0.15	12.011
9979	CB	672	MPD2	C3	1	0.117	12.011
9980	CB	672	MPD2	C4	1	-0.15	12.011
9981	CB	672	MPD2	C5	1	-0.15	12.011
9982	HCMM	672	MPD2	H	1	0.15	1.0079
9983	HCMM	672	MPD2	H1	1	0.15	1.0079
9984	HCMM	672	MPD2	H2	1	0.15	1.0079
9985	HCMM	672	MPD2	H3	1	0.15	1.0079
9986	NC=O	672	MPD2	N	1	-0.547	14.0067
9987	HNCO	672	MPD2	H5	1	0.37	1.0079
9988	NC=O	672	MPD2	N1	1	-0.547	14.0067
9989	HNCO	672	MPD2	H7	1	0.37	1.0079
9990	CB	673	TMC3	C1	1	0.0862	12.011
9991	CB	673	TMC3	C2	1	-0.15	12.011
9992	CB	673	TMC3	C3	1	0.0862	12.011
9993	CB	673	TMC3	C4	1	-0.15	12.011
9994	CB	673	TMC3	C5	1	0.0862	12.011
9995	CB	673	TMC3	C6	1	-0.15	12.011
9996	C=O	673	TMC3	C	1	0.5438	12.011
9997	O=C	673	TMC3	O	1	-0.57	15.9994
9998	HCMM	673	TMC3	H	1	0.15	1.0079
9999	HCMM	673	TMC3	H1	1	0.15	1.0079
10000	HCMM	673	TMC3	H2	1	0.15	1.0079
10001	C=O	673	TMC3	C7	1	0.5438	12.011
10002	C=O	673	TMC3	C8	1	0.5438	12.011
10003	O=C	673	TMC3	O1	1	-0.57	15.9994
10004	O=C	673	TMC3	O2	1	-0.57	15.9994
10005	CB	674	MPD2	C	1	-0.15	12.011
10006	CB	674	MPD2	C1	1	0.117	12.011
10007	CB	674	MPD2	C2	1	-0.15	12.011
10008	CB	674	MPD2	C3	1	0.117	12.011
10009	CB	674	MPD2	C4	1	-0.15	12.011
10010	CB	674	MPD2	C5	1	-0.15	12.011
10011	HCMM	674	MPD2	H	1	0.15	1.0079
10012	HCMM	674	MPD2	H1	1	0.15	1.0079
10013	HCMM	674	MPD2	H2	1	0.15	1.0079
10014	HCMM	674	MPD2	H3	1	0.15	1.0079
10015	NC=O	674	MPD2	N	1	-0.547	14.0067
10016	HNCO	674	MPD2	H5	1	0.37	1.0079
10017	NC=O	674	MPD2	N1	1	-0.547	14.0067
10018	HNCO	674	MPD2	H7	1	0.37	1.0079
10019	CB	675	TMC3	C1	1	0.0862	12.011
10020	CB	675	TMC3	C2	1	-0.15	12.011
10021	CB	675	TMC3	C3	1	0.0862	12.011
10022	CB	675	TMC3	C4	1	-0.15	12.011
10023	CB	675	TMC3	C5	1	0.0862	12.011
10024	CB	675	TMC3	C6	1	-0.15	12.011
10025	C=O	675	TMC3	C	1	0.5438	12.011
10026	O=C	675	TMC3	O	1	-0.57	15.9994
10027	HCMM	675	TMC3	H	1	0.15	1.0079
10028	HCMM	675	TMC3	H1	1	0.15	1.0079
10029	HCMM	675	TMC3	H2	1	0.15	1.0079
10030	C=O	675	TMC3	C7	1	0.5438	12.011
10031	C=O	675	TMC3	C8	1	0.5438	12.011
10032	O=C	675	TMC3	O1	1	-0.57	15.9994
10033	O=C	675	TMC3	O2	1	-0.57	15.9994
10034	CB	676	MPD2	C	1	-0.15	12.011
10035	CB	676	MPD2	C1	1	0.117	12.011
10036	CB	676	MPD2	C2	1	-0.15	12.011
10037	CB	676	MPD2	C3	1	0.117	12.011
10038	CB	676	MPD2	C4	1	-0.15	12.011
10039	CB	676	MPD2	C5	1	-0.15	12.011
10040	HCMM	676	MPD2	H	1	0.15	1.0079
10041	HCMM	676	MPD2	H1	1	0.15	1.0079
10042	HCMM	676	MPD2	H2	1	0.15	1.0079
10043	HCMM	676	MPD2	H3	1	0.15	1.0079
10044	NC=O	676	MPD2	N	1	-0.547	14.0067
10045	HNCO	676	MPD2	H5	1	0.37	1.0079
10046	NC=O	676	MPD2	N1	1	-0.547	14.0067
10047	HNCO	676	MPD2	H7	1	0.37	1.0079
10048	CB	677	TMC3	C1	1	0.0862	12.011
10049	CB	677	TMC3	C2	1	-0.15	12.011
10050	CB	677	TMC3	C3	1	0.0862	12.011
10051	CB	677	TMC3	C4	1	-0.15	12.011
10052	CB	677	TMC3	C5	1	0.0862	12.011
10053	CB	677	TMC3	C6	1	-0.15	12.011
10054	C=O	677	TMC3	C	1	0.5438	12.011
10055	O=C	677	TMC3	O	1	-0.57	15.9994
10056	HCMM	677	TMC3	H	1	0.15	1.0079
10057	HCMM	677	TMC3	H1	1	0.15	1.0079
10058	HCMM	677	TMC3	H2	1	0.15	1.0079
10059	C=O	677	TMC3	C7	1	0.5438	12.011
10060	C=O	677	TMC3	C8	1	0.5438	12.011
10061	O=C	677	TMC3	O1	1	-0.57	15.9994
10062	O=C	677	TMC3	O2	1	-0.57	15.9994
10063	CB	678	MPD2	C	1	-0.15	12.011
10064	CB	678	MPD2	C1	1	0.117	12.011
10065	CB	678	MPD2	C2	1	-0.15	12.011
10066	CB	678	MPD2	C3	1	0.117	12.011
10067	CB	678	MPD2	C4	1	-0.15	12.011
10068	CB	678	MPD2	C5	1	-0.15	12.011
10069	HCMM	678	MPD2	H	1	0.15	1.0079
10070	HCMM	678	MPD2	H1	1	0.15	1.0079
10071	HCMM	678	MPD2	H2	1	0.15	1.0079
10072	HCMM	678	MPD2	H3	1	0.15	1.0079
10073	NC=O	678	MPD2	N	1	-0.547	14.0067
10074	HNCO	678	MPD2	H5	1	0.37	1.0079
10075	NC=O	678	MPD2	N1	1	-0.547	14.0067
10076	HNCO	678	MPD2	H7	1	0.37	1.0079
10077	CB	679	TMC3	C1	1	0.0862	12.011
10078	CB	679	TMC3	C2	1	-0.15	12.011
10079	CB	679	TMC3	C3	1	0.0862	12.011
10080	CB	679	TMC3	C4	1	-0.15	12.011
10081	CB	679	TMC3	C5	1	0.0862	12.011
10082	CB	679	TMC3	C6	1	-0.15	12.011
10083	C=O	679	TMC3	C	1	0.5438	12.011
10084	O=C	679	TMC3	O	1	-0.57	15.9994
10085	HCMM	679	TMC3	H	1	0.15	1.0079
10086	HCMM	679	TMC3	H1	1	0.15	1.0079
10087	HCMM	679	TMC3	H2	1	0.15	1.0079
10088	C=O	679	TMC3	C7	1	0.5438	12.011
10089	C=O	679	TMC3	C8	1	0.5438	12.011
10090	O=C	679	TMC3	O1	1	-0.57	15.9994
10091	O=C	679	TMC3	O2	1	-0.57	15.9994
10092	CB	680	MPD2	C	1	-0.15	12.011
10093	CB	680	MPD2	C1	1	0.117	12.011
10094	CB	680	MPD2	C2	1	-0.15	12.011
10095	CB	680	MPD2	C3	1	0.117	12.011
10096	CB	680	MPD2	C4	1	-0.15	12.011
10097	CB	680	MPD2	C5	1	-0.15	12.011
10098	HCMM	680	MPD2	H	1	0.15	1.0079
10099	HCMM	680	MPD2	H1	1	0.15	1.0079
10100	HCMM	680	MPD2	H2	1	0.15	1.0079
10101	HCMM	680	MPD2	H3	1	0.15	1.0079
10102	NC=O	680	MPD2	N	1	-0.547	14.0067
10103	HNCO	680	MPD2	H5	1	0.37	1.0079
10104	NC=O	680	MPD2	N1	1	-0.547	14.0067
10105	HNCO	680	MPD2	H7	1	0.37	1.0079
10106	CB	681	TMC3	C1	1	0.0862	12.011
10107	CB	681	TMC3	C2	1	-0.15	12.011
10108	CB	681	TMC3	C3	1	0.0862	12.011
10109	CB	681	TMC3	C4	1	-0.15	12.011
10110	CB	681	TMC3	C5	1	0.0862	12.011
10111	CB	681	TMC3	C6	1	-0.15	12.011
10112	C=O	681	TMC3	C	1	0.5438	12.011
10113	O=C	681	TMC3	O	1	-0.57	15.9994
10114	HCMM	681	TMC3	H	1	0.15	1.0079
10115	HCMM	681	TMC3	H1	1	0.15	1.0079
10116	HCMM	681	TMC3	H2	1	0.15	1.0079
10117	C=O	681	TMC3	C7	1	0.5438	12.011
10118	C=O	681	TMC3	C8	1	0.5438	12.011
10119	O=C	681	TMC3	O1	1	-0.57	15.9994
10120	O=C	681	TMC3	O2	1	-0.57	15.9994
10121	CB	682	MPD2	C	1	-0.15	12.011
10122	CB	682	MPD2	C1	1	0.117	12.011
10123	CB	682	MPD2	C2	1	-0.15	12.011
10124	CB	682	MPD2	C3	1	0.117	12.011
10125	CB	682	MPD2	C4	1	-0.15	12.011
10126	CB	682	MPD2	C5	1	-0.15	12.011
10127	HCMM	682	MPD2	H	1	0.15	1.0079
10128	HCMM	682	MPD2	H1	1	0.15	1.0079
10129	HCMM	682	MPD2	H2	1	0.15	1.0079
10130	HCMM	682	MPD2	H3	1	0.15	1.0079
10131	NC=O	682	MPD2	N	1	-0.547	14.0067
10132	HNCO	682	MPD2	H5	1	0.37	1.0079
10133	NC=O	682	MPD2	N1	1	-0.547	14.0067
10134	HNCO	682	MPD2	H7	1	0.37	1.0079
10135	CB	683	TMC3	C1	1	0.0862	12.011
10136	CB	683	TMC3	C2	1	-0.15	12.011
10137	CB	683	TMC3	C3	1	0.0862	12.011
10138	CB	683	TMC3	C4	1	-0.15	12.011
10139	CB	683	TMC3	C5	1	0.0862	12.011
10140	CB	683	TMC3	C6	1	-0.15	12.011
10141	C=O	683	TMC3	C	1	0.5438	12.011
10142	O=C	683	TMC3	O	1	-0.57	15.9994
10143	HCMM	683	TMC3	H	1	0.15	1.0079
10144	HCMM	683	TMC3	H1	1	0.15	1.0079
10145	HCMM	683	TMC3	H2	1	0.15	1.0079
10146	C=O	683	TMC3	C7	1	0.5438	12.011
10147	C=O	683	TMC3	C8	1	0.5438	12.011
10148	O=C	683	TMC3	O1	1	-0.57	15.9994
10149	O=C	683	TMC3	O2	1	-0.57	15.9994
10150	CB	684	MPD2	C	1	-0.15	12.011
10151	CB	684	MPD2	C1	1	0.117	12.011
10152	CB	684	MPD2	C2	1	-0.15	12.011
10153	CB	684	MPD2	C3	1	0.117	12.011
10154	CB	684	MPD2	C4	1	-0.15	12.011
10155	CB	684	MPD2	C5	1	-0.15	12.011
10156	HCMM	684	MPD2	H	1	0.15	1.0079
10157	HCMM	684	MPD2	H1	1	0.15	1.0079
10158	HCMM	684	MPD2	H2	1	0.15	1.0079
10159	HCMM	684	MPD2	H3	1	0.15	1.0079
10160	NC=O	684	MPD2	N	1	-0.547	14.0067
10161	HNCO	684	MPD2	H5	1	0.37	1.0079
10162	NC=O	684	MPD2	N1	1	-0.547	14.0067
10163	HNCO	684	MPD2	H7	1	0.37	1.0079
10164	CB	685	TMC3	C1	1	0.0862	12.011
10165	CB	685	TMC3	C2	1	-0.15	12.011
10166	CB	685	TMC3	C3	1	0.0862	12.011
10167	CB	685	TMC3	C4	1	-0.15	12.011
10168	CB	685	TMC3	C5	1	0.0862	12.011
10169	CB	685	TMC3	C6	1	-0.15	12.011
10170	C=O	685	TMC3	C	1	0.5438	12.011
10171	O=C	685	TMC3	O	1	-0.57	15.9994
10172	HCMM	685	TMC3	H	1	0.15	1.0079
10173	HCMM	685	TMC3	H1	1	0.15	1.0079
10174	HCMM	685	TMC3	H2	1	0.15	1.0079
10175	C=O	685	TMC3	C7	1	0.5438	12.011
10176	C=O	685	TMC3	C8	1	0.5438	12.011
10177	O=C	685	TMC3	O1	1	-0.57	15.9994
10178	O=C	685	TMC3	O2	1	-0.57	15.9994
10179	CB	686	MPD2	C	1	-0.15	12.011
10180	CB	686	MPD2	C1	1	0.117	12.011
10181	CB	686	MPD2	C2	1	-0.15	12.011
10182	CB	686	MPD2	C3	1	0.117	12.011
10183	CB	686	MPD2	C4	1	-0.15	12.011
10184	CB	686	MPD2	C5	1	-0.15	12.011
10185	HCMM	686	MPD2	H	1	0.15	1.0079
10186	HCMM	686	MPD2	H1	1	0.15	1.0079
10187	HCMM	686	MPD2	H2	1	0.15	1.0079
10188	HCMM	686	MPD2	H3	1	0.15	1.0079
10189	NC=O	686	MPD2	N	1	-0.547	14.0067
10190	HNCO	686	MPD2	H5	1	0.37	1.0079
10191	NC=O	686	MPD2	N1	1	-0.547	14.0067
10192	HNCO	686	MPD2	H7	1	0.37	1.0079
10193	CB	687	TMC3	C1	1	0.0862	12.011
10194	CB	687	TMC3	C2	1	-0.15	12.011
10195	CB	687	TMC3	C3	1	0.0862	12.011
10196	CB	687	TMC3	C4	1	-0.15	12.011
10197	CB	687	TMC3	C5	1	0.0862	12.011
10198	CB	687	TMC3	C6	1	-0.15	12.011
10199	C=O	687	TMC3	C	1	0.5438	12.011
10200	O=C	687	TMC3	O	1	-0.57	15.9994
10201	HCMM	687	TMC3	H	1	0.15	1.0079
10202	HCMM	687	TMC3	H1	1	0.15	1.0079
10203	HCMM	687	TMC3	H2	1	0.15	1.0079
10204	C=O	687	TMC3	C7	1	0.5438	12.011
10205	C=O	687	TMC3	C8	1	0.5438	12.011
10206	O=C	687	TMC3	O1	1	-0.57	15.9994
10207	O=C	687	TMC3	O2	1	-0.57	15.9994
10208	CB	688	MPD2	C	1	-0.15	12.011
10209	CB	688	MPD2	C1	1	0.117	12.011
10210	CB	688	MPD2	C2	1	-0.15	12.011
10211	CB	688	MPD2	C3	1	0.117	12.011
10212	CB	688	MPD2	C4	1	-0.15	12.011
10213	CB	688	MPD2	C5	1	-0.15	12.011
10214	HCMM	688	MPD2	H	1	0.15	1.0079
10215	HCMM	688	MPD2	H1	1	0.15	1.0079
10216	HCMM	688	MPD2	H2	1	0.15	1.0079
10217	HCMM	688	MPD2	H3	1	0.15	1.0079
10218	NC=O	688	MPD2	N	1	-0.547	14.0067
10219	HNCO	688	MPD2	H5	1	0.37	1.0079
10220	NC=O	688	MPD2	N1	1	-0.547	14.0067
10221	HNCO	688	MPD2	H7	1	0.37	1.0079
10222	CB	689	TMC3	C1	1	0.0862	12.011
10223	CB	689	TMC3	C2	1	-0.15	12.011
10224	CB	689	TMC3	C3	1	0.0862	12.011
10225	CB	689	TMC3	C4	1	-0.15	12.011
10226	CB	689	TMC3	C5	1	0.0862	12.011
10227	CB	689	TMC3	C6	1	-0.15	12.011
10228	C=O	689	TMC3	C	1	0.5438	12.011
10229	O=C	689	TMC3	O	1	-0.57	15.9994
10230	HCMM	689	TMC3	H	1	0.15	1.0079
10231	HCMM	689	TMC3	H1	1	0.15	1.0079
10232	HCMM	689	TMC3	H2	1	0.15	1.0079
10233	C=O	689	TMC3	C7	1	0.5438	12.011
10234	C=O	689	TMC3	C8	1	0.5438	12.011
10235	O=C	689	TMC3	O1	1	-0.57	15.9994
10236	O=C	689	TMC3	O2	1	-0.57	15.9994
10237	CB	690	MPD2	C	1	-0.15	12.011
10238	CB	690	MPD2	C1	1	0.117	12.011
10239	CB	690	MPD2	C2	1	-0.15	12.011
10240	CB	690	MPD2	C3	1	0.117	12.011
10241	CB	690	MPD2	C4	1	-0.15	12.011
10242	CB	690	MPD2	C5	1	-0.15	12.011
10243	HCMM	690	MPD2	H	1	0.15	1.0079
10244	HCMM	690	MPD2	H1	1	0.15	1.0079
10245	HCMM	690	MPD2	H2	1	0.15	1.0079
10246	HCMM	690	MPD2	H3	1	0.15	1.0079
10247	NC=O	690	MPD2	N	1	-0.547	14.0067
10248	HNCO	690	MPD2	H5	1	0.37	1.0079
10249	NC=O	690	MPD2	N1	1	-0.547	14.0067
10250	HNCO	690	MPD2	H7	1	0.37	1.0079
10251	CB	691	TMC3	C1	1	0.0862	12.011
10252	CB	691	TMC3	C2	1	-0.15	12.011
10253	CB	691	TMC3	C3	1	0.0862	12.011
10254	CB	691	TMC3	C4	1	-0.15	12.011
10255	CB	691	TMC3	C5	1	0.0862	12.011
10256	CB	691	TMC3	C6	1	-0.15	12.011
10257	C=O	691	TMC3	C	1	0.5438	12.011
10258	O=C	691	TMC3	O	1	-0.57	15.9994
10259	HCMM	691	TMC3	H	1	0.15	1.0079
10260	HCMM	691	TMC3	H1	1	0.15	1.0079
10261	HCMM	691	TMC3	H2	1	0.15	1.0079
10262	C=O	691	TMC3	C7	1	0.5438	12.011
10263	C=O	691	TMC3	C8	1	0.5438	12.011
10264	O=C	691	TMC3	O1	1	-0.57	15.9994
10265	O=C	691	TMC3	O2	1	-0.57	15.9994
10266	CB	692	TMC3	C1	1	0.0862	12.011
10267	CB	692	TMC3	C2	1	-0.15	12.011
10268	CB	692	TMC3	C3	1	0.0862	12.011
10269	CB	692	TMC3	C4	1	-0.15	12.011
10270	CB	692	TMC3	C5	1	0.0862	12.011
10271	CB	692	TMC3	C6	1	-0.15	12.011
10272	C=O	692	TMC3	C	1	0.5438	12.011
10273	O=C	692	TMC3	O	1	-0.57	15.9994
10274	HCMM	692	TMC3	H	1	0.15	1.0079
10275	HCMM	692	TMC3	H1	1	0.15	1.0079
10276	HCMM	692	TMC3	H2	1	0.15	1.0079
10277	C=O	692	TMC3	C7	1	0.5438	12.011
10278	C=O	692	TMC3	C8	1	0.5438	12.011
10279	O=C	692	TMC3	O1	1	-0.57	15.9994
10280	O=C	692	TMC3	O2	1	-0.57	15.9994
10281	CB	693	MPD2	C	1	-0.15	12.011
10282	CB	693	MPD2	C1	1	0.117	12.011
10283	CB	693	MPD2	C2	1	-0.15	12.011
10284	CB	693	MPD2	C3	1	0.117	12.011
10285	CB	693	MPD2	C4	1	-0.15	12.011
10286	CB	693	MPD2	C5	1	-0.15	12.011
10287	HCMM	693	MPD2	H	1	0.15	1.0079
10288	HCMM	693	MPD2	H1	1	0.15	1.0079
10289	HCMM	693	MPD2	H2	1	0.15	1.0079
10290	HCMM	693	MPD2	H3	1	0.15	1.0079
10291	NC=O	693	MPD2	N	1	-0.547	14.0067
10292	HNCO	693	MPD2	H5	1	0.37	1.0079
10293	NC=O	693	MPD2	N1	1	-0.547	14.0067
10294	HNCO	693	MPD2	H7	1	0.37	1.0079
10295	CB	694	TMC3	C1	1	0.0862	12.011
10296	CB	694	TMC3	C2	1	-0.15	12.011
10297	CB	694	TMC3	C3	1	0.0862	12.011
10298	CB	694	TMC3	C4	1	-0.15	12.011
10299	CB	694	TMC3	C5	1	0.0862	12.011
10300	CB	694	TMC3	C6	1	-0.15	12.011
10301	C=O	694	TMC3	C	1	0.5438	12.011
10302	O=C	694	TMC3	O	1	-0.57	15.9994
10303	HCMM	694	TMC3	H	1	0.15	1.0079
10304	HCMM	694	TMC3	H1	1	0.15	1.0079
10305	HCMM	694	TMC3	H2	1	0.15	1.0079
10306	C=O	694	TMC3	C7	1	0.5438	12.011
10307	C=O	694	TMC3	C8	1	0.5438	12.011
10308	O=C	694	TMC3	O1	1	-0.57	15.9994
10309	O=C	694	TMC3	O2	1	-0.57	15.9994
10310	CB	695	MPD2	C	1	-0.15	12.011
10311	CB	695	MPD2	C1	1	0.117	12.011
10312	CB	695	MPD2	C2	1	-0.15	12.011
10313	CB	695	MPD2	C3	1	0.117	12.011
10314	CB	695	MPD2	C4	1	-0.15	12.011
10315	CB	695	MPD2	C5	1	-0.15	12.011
10316	HCMM	695	MPD2	H	1	0.15	1.0079
10317	HCMM	695	MPD2	H1	1	0.15	1.0079
10318	HCMM	695	MPD2	H2	1	0.15	1.0079
10319	HCMM	695	MPD2	H3	1	0.15	1.0079
10320	NC=O	695	MPD2	N	1	-0.547	14.0067
10321	HNCO	695	MPD2	H5	1	0.37	1.0079
10322	NC=O	695	MPD2	N1	1	-0.547	14.0067
10323	HNCO	695	MPD2	H7	1	0.37	1.0079
10324	CB	696	TMC3	C1	1	0.0862	12.011
10325	CB	696	TMC3	C2	1	-0.15	12.011
10326	CB	696	TMC3	C3	1	0.0862	12.011
10327	CB	696	TMC3	C4	1	-0.15	12.011
10328	CB	696	TMC3	C5	1	0.0862	12.011
10329	CB	696	TMC3	C6	1	-0.15	12.011
10330	C=O	696	TMC3	C	1	0.5438	12.011
10331	O=C	696	TMC3	O	1	-0.57	15.9994
10332	HCMM	696	TMC3	H	1	0.15	1.0079
10333	HCMM	696	TMC3	H1	1	0.15	1.0079
10334	HCMM	696	TMC3	H2	1	0.15	1.0079
10335	C=O	696	TMC3	C7	1	0.5438	12.011
10336	C=O	696	TMC3	C8	1	0.5438	12.011
10337	O=C	696	TMC3	O1	1	-0.57	15.9994
10338	O=C	696	TMC3	O2	1	-0.57	15.9994
10339	CB	697	MPD2	C	1	-0.15	12.011
10340	CB	697	MPD2	C1	1	0.117	12.011
10341	CB	697	MPD2	C2	1	-0.15	12.011
10342	CB	697	MPD2	C3	1	0.117	12.011
10343	CB	697	MPD2	C4	1	-0.15	12.011
10344	CB	697	MPD2	C5	1	-0.15	12.011
10345	HCMM	697	MPD2	H	1	0.15	1.0079
10346	HCMM	697	MPD2	H1	1	0.15	1.0079
10347	HCMM	697	MPD2	H2	1	0.15	1.0079
10348	HCMM	697	MPD2	H3	1	0.15	1.0079
10349	NC=O	697	MPD2	N	1	-0.547	14.0067
10350	HNCO	697	MPD2	H5	1	0.37	1.0079
10351	NC=O	697	MPD2	N1	1	-0.547	14.0067
10352	HNCO	697	MPD2	H7	1	0.37	1.0079
10353	CB	698	TMC3	C1	1	0.0862	12.011
10354	CB	698	TMC3	C2	1	-0.15	12.011
10355	CB	698	TMC3	C3	1	0.0862	12.011
10356	CB	698	TMC3	C4	1	-0.15	12.011
10357	CB	698	TMC3	C5	1	0.0862	12.011
10358	CB	698	TMC3	C6	1	-0.15	12.011
10359	C=O	698	TMC3	C	1	0.5438	12.011
10360	O=C	698	TMC3	O	1	-0.57	15.9994
10361	HCMM	698	TMC3	H	1	0.15	1.0079
10362	HCMM	698	TMC3	H1	1	0.15	1.0079
10363	HCMM	698	TMC3	H2	1	0.15	1.0079
10364	C=O	698	TMC3	C7	1	0.5438	12.011
10365	C=O	698	TMC3	C8	1	0.5438	12.011
10366	O=C	698	TMC3	O1	1	-0.57	15.9994
10367	O=C	698	TMC3	O2	1	-0.57	15.9994
10368	CB	699	TMC3	C1	1	0.0862	12.011
10369	CB	699	TMC3	C2	1	-0.15	12.011
10370	CB	699	TMC3	C3	1	0.0862	12.011
10371	CB	699	TMC3	C4	1	-0.15	12.011
10372	CB	699	TMC3	C5	1	0.0862	12.011
10373	CB	699	TMC3	C6	1	-0.15	12.011
10374	C=O	699	TMC3	C	1	0.5438	12.011
10375	O=C	699	TMC3	O	1	-0.57	15.9994
10376	HCMM	699	TMC3	H	1	0.15	1.0079
10377	HCMM	699	TMC3	H1	1	0.15	1.0079
10378	HCMM	699	TMC3	H2	1	0.15	1.0079
10379	C=O	699	TMC3	C7	1	0.5438	12.011
10380	C=O	699	TMC3	C8	1	0.5438	12.011
10381	O=C	699	TMC3	O1	1	-0.57	15.9994
10382	O=C	699	TMC3	O2	1	-0.57	15.9994
10383	CB	700	TMC3	C1	1	0.0862	12.011
10384	CB	700	TMC3	C2	1	-0.15	12.011
10385	CB	700	TMC3	C3	1	0.0862	12.011
10386	CB	700	TMC3	C4	1	-0.15	12.011
10387	CB	700	TMC3	C5	1	0.0862	12.011
10388	CB	700	TMC3	C6	1	-0.15	12.011
10389	C=O	700	TMC3	C	1	0.5438	12.011
10390	O=C	700	TMC3	O	1	-0.57	15.9994
10391	HCMM	700	TMC3	H	1	0.15	1.0079
10392	HCMM	700	TMC3	H1	1	0.15	1.0079
10393	HCMM	700	TMC3	H2	1	0.15	1.0079
10394	C=O	700	TMC3	C7	1	0.5438	12.011
10395	C=O	700	TMC3	C8	1	0.5438	12.011
10396	O=C	700	TMC3	O1	1	-0.57	15.9994
10397	O=C	700	TMC3	O2	1	-0.57	15.9994
10398	CB	701	TMC3	C1	1	0.0862	12.011
10399	CB	701	TMC3	C2	1	-0.15	12.011
10400	CB	701	TMC3	C3	1	0.0862	12.011
10401	CB	701	TMC3	C4	1	-0.15	12.011
10402	CB	701	TMC3	C5	1	0.0862	12.011
10403	CB	701	TMC3	C6	1	-0.15	12.011
10404	C=O	701	TMC3	C	1	0.5438	12.011
10405	O=C	701	TMC3	O	1	-0.57	15.9994
10406	HCMM	701	TMC3	H	1	0.15	1.0079
10407	HCMM	701	TMC3	H1	1	0.15	1.0079
10408	HCMM	701	TMC3	H2	1	0.15	1.0079
10409	C=O	701	TMC3	C7	1	0.5438	12.011
10410	C=O	701	TMC3	C8	1	0.5438	12.011
10411	O=C	701	TMC3	O1	1	-0.57	15.9994
10412	O=C	701	TMC3	O2	1	-0.57	15.9994
10413	CB	702	MPD2	C	1	-0.15	12.011
10414	CB	702	MPD2	C1	1	0.117	12.011
10415	CB	702	MPD2	C2	1	-0.15	12.011
10416	CB	702	MPD2	C3	1	0.117	12.011
10417	CB	702	MPD2	C4	1	-0.15	12.011
10418	CB	702	MPD2	C5	1	-0.15	12.011
10419	HCMM	702	MPD2	H	1	0.15	1.0079
10420	HCMM	702	MPD2	H1	1	0.15	1.0079
10421	HCMM	702	MPD2	H2	1	0.15	1.0079
10422	HCMM	702	MPD2	H3	1	0.15	1.0079
10423	NC=O	702	MPD2	N	1	-0.547	14.0067
10424	HNCO	702	MPD2	H5	1	0.37	1.0079
10425	NC=O	702	MPD2	N1	1	-0.547	14.0067
10426	HNCO	702	MPD2	H7	1	0.37	1.0079
10427	CB	703	TMC3	C1	1	0.0862	12.011
10428	CB	703	TMC3	C2	1	-0.15	12.011
10429	CB	703	TMC3	C3	1	0.0862	12.011
10430	CB	703	TMC3	C4	1	-0.15	12.011
10431	CB	703	TMC3	C5	1	0.0862	12.011
10432	CB	703	TMC3	C6	1	-0.15	12.011
10433	C=O	703	TMC3	C	1	0.5438	12.011
10434	O=C	703	TMC3	O	1	-0.57	15.9994
10435	HCMM	703	TMC3	H	1	0.15	1.0079
10436	HCMM	703	TMC3	H1	1	0.15	1.0079
10437	HCMM	703	TMC3	H2	1	0.15	1.0079
10438	C=O	703	TMC3	C7	1	0.5438	12.011
10439	C=O	703	TMC3	C8	1	0.5438	12.011
10440	O=C	703	TMC3	O1	1	-0.57	15.9994
10441	O=C	703	TMC3	O2	1	-0.57	15.9994
10442	CB	704	TMC3	C1	1	0.0862	12.011
10443	CB	704	TMC3	C2	1	-0.15	12.011
10444	CB	704	TMC3	C3	1	0.0862	12.011
10445	CB	704	TMC3	C4	1	-0.15	12.011
10446	CB	704	TMC3	C5	1	0.0862	12.011
10447	CB	704	TMC3	C6	1	-0.15	12.011
10448	C=O	704	TMC3	C	1	0.5438	12.011
10449	O=C	704	TMC3	O	1	-0.57	15.9994
10450	HCMM	704	TMC3	H	1	0.15	1.0079
10451	HCMM	704	TMC3	H1	1	0.15	1.0079
10452	HCMM	704	TMC3	H2	1	0.15	1.0079
10453	C=O	704	TMC3	C7	1	0.5438	12.011
10454	C=O	704	TMC3	C8	1	0.5438	12.011
10455	O=C	704	TMC3	O1	1	-0.57	15.9994
10456	O=C	704	TMC3	O2	1	-0.57	15.9994
10457	CB	705	MPD2	C	1	-0.15	12.011
10458	CB	705	MPD2	C1	1	0.117	12.011
10459	CB	705	MPD2	C2	1	-0.15	12.011
10460	CB	705	MPD2	C3	1	0.117	12.011
10461	CB	705	MPD2	C4	1	-0.15	12.011
10462	CB	705	MPD2	C5	1	-0.15	12.011
10463	HCMM	705	MPD2	H	1	0.15	1.0079
10464	HCMM	705	MPD2	H1	1	0.15	1.0079
10465	HCMM	705	MPD2	H2	1	0.15	1.0079
10466	HCMM	705	MPD2	H3	1	0.15	1.0079
10467	NC=O	705	MPD2	N	1	-0.547	14.0067
10468	HNCO	705	MPD2	H5	1	0.37	1.0079
10469	NC=O	705	MPD2	N1	1	-0.547	14.0067
10470	HNCO	705	MPD2	H7	1	0.37	1.0079
10471	CB	706	TMC3	C1	1	0.0862	12.011
10472	CB	706	TMC3	C2	1	-0.15	12.011
10473	CB	706	TMC3	C3	1	0.0862	12.011
10474	CB	706	TMC3	C4	1	-0.15	12.011
10475	CB	706	TMC3	C5	1	0.0862	12.011
10476	CB	706	TMC3	C6	1	-0.15	12.011
10477	C=O	706	TMC3	C	1	0.5438	12.011
10478	O=C	706	TMC3	O	1	-0.57	15.9994
10479	HCMM	706	TMC3	H	1	0.15	1.0079
10480	HCMM	706	TMC3	H1	1	0.15	1.0079
10481	HCMM	706	TMC3	H2	1	0.15	1.0079
10482	C=O	706	TMC3	C7	1	0.5438	12.011
10483	C=O	706	TMC3	C8	1	0.5438	12.011
10484	O=C	706	TMC3	O1	1	-0.57	15.9994
10485	O=C	706	TMC3	O2	1	-0.57	15.9994
10486	CB	707	TMC3	C1	1	0.0862	12.011
10487	CB	707	TMC3	C2	1	-0.15	12.011
10488	CB	707	TMC3	C3	1	0.0862	12.011
10489	CB	707	TMC3	C4	1	-0.15	12.011
10490	CB	707	TMC3	C5	1	0.0862	12.011
10491	CB	707	TMC3	C6	1	-0.15	12.011
10492	C=O	707	TMC3	C	1	0.5438	12.011
10493	O=C	707	TMC3	O	1	-0.57	15.9994
10494	HCMM	707	TMC3	H	1	0.15	1.0079
10495	HCMM	707	TMC3	H1	1	0.15	1.0079
10496	HCMM	707	TMC3	H2	1	0.15	1.0079
10497	C=O	707	TMC3	C7	1	0.5438	12.011
10498	C=O	707	TMC3	C8	1	0.5438	12.011
10499	O=C	707	TMC3	O1	1	-0.57	15.9994
10500	O=C	707	TMC3	O2	1	-0.57	15.9994
10501	CB	708	MPD2	C	1	-0.15	12.011
10502	CB	708	MPD2	C1	1	0.117	12.011
10503	CB	708	MPD2	C2	1	-0.15	12.011
10504	CB	708	MPD2	C3	1	0.117	12.011
10505	CB	708	MPD2	C4	1	-0.15	12.011
10506	CB	708	MPD2	C5	1	-0.15	12.011
10507	HCMM	708	MPD2	H	1	0.15	1.0079
10508	HCMM	708	MPD2	H1	1	0.15	1.0079
10509	HCMM	708	MPD2	H2	1	0.15	1.0079
10510	HCMM	708	MPD2	H3	1	0.15	1.0079
10511	NC=O	708	MPD2	N	1	-0.547	14.0067
10512	HNCO	708	MPD2	H5	1	0.37	1.0079
10513	NC=O	708	MPD2	N1	1	-0.547	14.0067
10514	HNCO	708	MPD2	H7	1	0.37	1.0079
10515	CB	709	TMC3	C1	1	0.0862	12.011
10516	CB	709	TMC3	C2	1	-0.15	12.011
10517	CB	709	TMC3	C3	1	0.0862	12.011
10518	CB	709	TMC3	C4	1	-0.15	12.011
10519	CB	709	TMC3	C5	1	0.0862	12.011
10520	CB	709	TMC3	C6	1	-0.15	12.011
10521	C=O	709	TMC3	C	1	0.5438	12.011
10522	O=C	709	TMC3	O	1	-0.57	15.9994
10523	HCMM	709	TMC3	H	1	0.15	1.0079
10524	HCMM	709	TMC3	H1	1	0.15	1.0079
10525	HCMM	709	TMC3	H2	1	0.15	1.0079
10526	C=O	709	TMC3	C7	1	0.5438	12.011
10527	C=O	709	TMC3	C8	1	0.5438	12.011
10528	O=C	709	TMC3	O1	1	-0.57	15.9994
10529	O=C	709	TMC3	O2	1	-0.57	15.9994
10530	CB	710	TMC3	C1	1	0.0862	12.011
10531	CB	710	TMC3	C2	1	-0.15	12.011
10532	CB	710	TMC3	C3	1	0.0862	12.011
10533	CB	710	TMC3	C4	1	-0.15	12.011
10534	CB	710	TMC3	C5	1	0.0862	12.011
10535	CB	710	TMC3	C6	1	-0.15	12.011
10536	C=O	710	TMC3	C	1	0.5438	12.011
10537	O=C	710	TMC3	O	1	-0.57	15.9994
10538	HCMM	710	TMC3	H	1	0.15	1.0079
10539	HCMM	710	TMC3	H1	1	0.15	1.0079
10540	HCMM	710	TMC3	H2	1	0.15	1.0079
10541	C=O	710	TMC3	C7	1	0.5438	12.011
10542	C=O	710	TMC3	C8	1	0.5438	12.011
10543	O=C	710	TMC3	O1	1	-0.57	15.9994
10544	O=C	710	TMC3	O2	1	-0.57	15.9994
10545	CB	711	TMC3	C1	1	0.0862	12.011
10546	CB	711	TMC3	C2	1	-0.15	12.011
10547	CB	711	TMC3	C3	1	0.0862	12.011
10548	CB	711	TMC3	C4	1	-0.15	12.011
10549	CB	711	TMC3	C5	1	0.0862	12.011
10550	CB	711	TMC3	C6	1	-0.15	12.011
10551	C=O	711	TMC3	C	1	0.5438	12.011
10552	O=C	711	TMC3	O	1	-0.57	15.9994
10553	HCMM	711	TMC3	H	1	0.15	1.0079
10554	HCMM	711	TMC3	H1	1	0.15	1.0079
10555	HCMM	711	TMC3	H2	1	0.15	1.0079
10556	C=O	711	TMC3	C7	1	0.5438	12.011
10557	C=O	711	TMC3	C8	1	0.5438	12.011
10558	O=C	711	TMC3	O1	1	-0.57	15.9994
10559	O=C	711	TMC3	O2	1	-0.57	15.9994
10560	CB	712	MPD2	C	1	-0.15	12.011
10561	CB	712	MPD2	C1	1	0.117	12.011
10562	CB	712	MPD2	C2	1	-0.15	12.011
10563	CB	712	MPD2	C3	1	0.117	12.011
10564	CB	712	MPD2	C4	1	-0.15	12.011
10565	CB	712	MPD2	C5	1	-0.15	12.011
10566	HCMM	712	MPD2	H	1	0.15	1.0079
10567	HCMM	712	MPD2	H1	1	0.15	1.0079
10568	HCMM	712	MPD2	H2	1	0.15	1.0079
10569	HCMM	712	MPD2	H3	1	0.15	1.0079
10570	NC=O	712	MPD2	N	1	-0.547	14.0067
10571	HNCO	712	MPD2	H5	1	0.37	1.0079
10572	NC=O	712	MPD2	N1	1	-0.547	14.0067
10573	HNCO	712	MPD2	H7	1	0.37	1.0079
10574	CB	713	TMC3	C1	1	0.0862	12.011
10575	CB	713	TMC3	C2	1	-0.15	12.011
10576	CB	713	TMC3	C3	1	0.0862	12.011
10577	CB	713	TMC3	C4	1	-0.15	12.011
10578	CB	713	TMC3	C5	1	0.0862	12.011
10579	CB	713	TMC3	C6	1	-0.15	12.011
10580	C=O	713	TMC3	C	1	0.5438	12.011
10581	O=C	713	TMC3	O	1	-0.57	15.9994
10582	HCMM	713	TMC3	H	1	0.15	1.0079
10583	HCMM	713	TMC3	H1	1	0.15	1.0079
10584	HCMM	713	TMC3	H2	1	0.15	1.0079
10585	C=O	713	TMC3	C7	1	0.5438	12.011
10586	C=O	713	TMC3	C8	1	0.5438	12.011
10587	O=C	713	TMC3	O1	1	-0.57	15.9994
10588	O=C	713	TMC3	O2	1	-0.57	15.9994
10589	CB	714	MPD2	C	1	-0.15	12.011
10590	CB	714	MPD2	C1	1	0.117	12.011
10591	CB	714	MPD2	C2	1	-0.15	12.011
10592	CB	714	MPD2	C3	1	0.117	12.011
10593	CB	714	MPD2	C4	1	-0.15	12.011
10594	CB	714	MPD2	C5	1	-0.15	12.011
10595	HCMM	714	MPD2	H	1	0.15	1.0079
10596	HCMM	714	MPD2	H1	1	0.15	1.0079
10597	HCMM	714	MPD2	H2	1	0.15	1.0079
10598	HCMM	714	MPD2	H3	1	0.15	1.0079
10599	NC=O	714	MPD2	N	1	-0.547	14.0067
10600	HNCO	714	MPD2	H5	1	0.37	1.0079
10601	NC=O	714	MPD2	N1	1	-0.547	14.0067
10602	HNCO	714	MPD2	H7	1	0.37	1.0079
10603	CB	715	TMC3	C1	1	0.0862	12.011
10604	CB	715	TMC3	C2	1	-0.15	12.011
10605	CB	715	TMC3	C3	1	0.0862	12.011
10606	CB	715	TMC3	C4	1	-0.15	12.011
10607	CB	715	TMC3	C5	1	0.0862	12.011
10608	CB	715	TMC3	C6	1	-0.15	12.011
10609	C=O	715	TMC3	C	1	0.5438	12.011
10610	O=C	715	TMC3	O	1	-0.57	15.9994
10611	HCMM	715	TMC3	H	1	0.15	1.0079
10612	HCMM	715	TMC3	H1	1	0.15	1.0079
10613	HCMM	715	TMC3	H2	1	0.15	1.0079
10614	C=O	715	TMC3	C7	1	0.5438	12.011
10615	C=O	715	TMC3	C8	1	0.5438	12.011
10616	O=C	715	TMC3	O1	1	-0.57	15.9994
10617	O=C	715	TMC3	O2	1	-0.57	15.9994
10618	CB	716	MPD2	C	1	-0.15	12.011
10619	CB	716	MPD2	C1	1	0.117	12.011
10620	CB	716	MPD2	C2	1	-0.15	12.011
10621	CB	716	MPD2	C3	1	0.117	12.011
10622	CB	716	MPD2	C4	1	-0.15	12.011
10623	CB	716	MPD2	C5	1	-0.15	12.011
10624	HCMM	716	MPD2	H	1	0.15	1.0079
10625	HCMM	716	MPD2	H1	1	0.15	1.0079
10626	HCMM	716	MPD2	H2	1	0.15	1.0079
10627	HCMM	716	MPD2	H3	1	0.15	1.0079
10628	NC=O	716	MPD2	N	1	-0.547	14.0067
10629	HNCO	716	MPD2	H5	1	0.37	1.0079
10630	NC=O	716	MPD2	N1	1	-0.547	14.0067
10631	HNCO	716	MPD2	H7	1	0.37	1.0079
10632	CB	717	TMC3	C1	1	0.0862	12.011
10633	CB	717	TMC3	C2	1	-0.15	12.011
10634	CB	717	TMC3	C3	1	0.0862	12.011
10635	CB	717	TMC3	C4	1	-0.15	12.011
10636	CB	717	TMC3	C5	1	0.0862	12.011
10637	CB	717	TMC3	C6	1	-0.15	12.011
10638	C=O	717	TMC3	C	1	0.5438	12.011
10639	O=C	717	TMC3	O	1	-0.57	15.9994
10640	HCMM	717	TMC3	H	1	0.15	1.0079
10641	HCMM	717	TMC3	H1	1	0.15	1.0079
10642	HCMM	717	TMC3	H2	1	0.15	1.0079
10643	C=O	717	TMC3	C7	1	0.5438	12.011
10644	C=O	717	TMC3	C8	1	0.5438	12.011
10645	O=C	717	TMC3	O1	1	-0.57	15.9994
10646	O=C	717	TMC3	O2	1	-0.57	15.9994
10647	CB	718	MPD2	C	1	-0.15	12.011
10648	CB	718	MPD2	C1	1	0.117	12.011
10649	CB	718	MPD2	C2	1	-0.15	12.011
10650	CB	718	MPD2	C3	1	0.117	12.011
10651	CB	718	MPD2	C4	1	-0.15	12.011
10652	CB	718	MPD2	C5	1	-0.15	12.011
10653	HCMM	718	MPD2	H	1	0.15	1.0079
10654	HCMM	718	MPD2	H1	1	0.15	1.0079
10655	HCMM	718	MPD2	H2	1	0.15	1.0079
10656	HCMM	718	MPD2	H3	1	0.15	1.0079
10657	NC=O	718	MPD2	N	1	-0.547	14.0067
10658	HNCO	718	MPD2	H5	1	0.37	1.0079
10659	NC=O	718	MPD2	N1	1	-0.547	14.0067
10660	HNCO	718	MPD2	H7	1	0.37	1.0079
10661	CB	719	TMC3	C1	1	0.0862	12.011
10662	CB	719	TMC3	C2	1	-0.15	12.011
10663	CB	719	TMC3	C3	1	0.0862	12.011
10664	CB	719	TMC3	C4	1	-0.15	12.011
10665	CB	719	TMC3	C5	1	0.0862	12.011
10666	CB	719	TMC3	C6	1	-0.15	12.011
10667	C=O	719	TMC3	C	1	0.5438	12.011
10668	O=C	719	TMC3	O	1	-0.57	15.9994
10669	HCMM	719	TMC3	H	1	0.15	1.0079
10670	HCMM	719	TMC3	H1	1	0.15	1.0079
10671	HCMM	719	TMC3	H2	1	0.15	1.0079
10672	C=O	719	TMC3	C7	1	0.5438	12.011
10673	C=O	719	TMC3	C8	1	0.5438	12.011
10674	O=C	719	TMC3	O1	1	-0.57	15.9994
10675	O=C	719	TMC3	O2	1	-0.57	15.9994
10676	CB	720	MPD2	C	1	-0.15	12.011
10677	CB	720	MPD2	C1	1	0.117	12.011
10678	CB	720	MPD2	C2	1	-0.15	12.011
10679	CB	720	MPD2	C3	1	0.117	12.011
10680	CB	720	MPD2	C4	1	-0.15	12.011
10681	CB	720	MPD2	C5	1	-0.15	12.011
10682	HCMM	720	MPD2	H	1	0.15	1.0079
10683	HCMM	720	MPD2	H1	1	0.15	1.0079
10684	HCMM	720	MPD2	H2	1	0.15	1.0079
10685	HCMM	720	MPD2	H3	1	0.15	1.0079
10686	NC=O	720	MPD2	N	1	-0.547	14.0067
10687	HNCO	720	MPD2	H5	1	0.37	1.0079
10688	NC=O	720	MPD2	N1	1	-0.547	14.0067
10689	HNCO	720	MPD2	H7	1	0.37	1.0079
10690	CB	721	TMC3	C1	1	0.0862	12.011
10691	CB	721	TMC3	C2	1	-0.15	12.011
10692	CB	721	TMC3	C3	1	0.0862	12.011
10693	CB	721	TMC3	C4	1	-0.15	12.011
10694	CB	721	TMC3	C5	1	0.0862	12.011
10695	CB	721	TMC3	C6	1	-0.15	12.011
10696	C=O	721	TMC3	C	1	0.5438	12.011
10697	O=C	721	TMC3	O	1	-0.57	15.9994
10698	HCMM	721	TMC3	H	1	0.15	1.0079
10699	HCMM	721	TMC3	H1	1	0.15	1.0079
10700	HCMM	721	TMC3	H2	1	0.15	1.0079
10701	C=O	721	TMC3	C7	1	0.5438	12.011
10702	C=O	721	TMC3	C8	1	0.5438	12.011
10703	O=C	721	TMC3	O1	1	-0.57	15.9994
10704	O=C	721	TMC3	O2	1	-0.57	15.9994
10705	CB	722	MPD2	C	1	-0.15	12.011
10706	CB	722	MPD2	C1	1	0.117	12.011
10707	CB	722	MPD2	C2	1	-0.15	12.011
10708	CB	722	MPD2	C3	1	0.117	12.011
10709	CB	722	MPD2	C4	1	-0.15	12.011
10710	CB	722	MPD2	C5	1	-0.15	12.011
10711	HCMM	722	MPD2	H	1	0.15	1.0079
10712	HCMM	722	MPD2	H1	1	0.15	1.0079
10713	HCMM	722	MPD2	H2	1	0.15	1.0079
10714	HCMM	722	MPD2	H3	1	0.15	1.0079
10715	NC=O	722	MPD2	N	1	-0.547	14.0067
10716	HNCO	722	MPD2	H5	1	0.37	1.0079
10717	NC=O	722	MPD2	N1	1	-0.547	14.0067
10718	HNCO	722	MPD2	H7	1	0.37	1.0079
10719	CB	723	TMC3	C1	1	0.0862	12.011
10720	CB	723	TMC3	C2	1	-0.15	12.011
10721	CB	723	TMC3	C3	1	0.0862	12.011
10722	CB	723	TMC3	C4	1	-0.15	12.011
10723	CB	723	TMC3	C5	1	0.0862	12.011
10724	CB	723	TMC3	C6	1	-0.15	12.011
10725	C=O	723	TMC3	C	1	0.5438	12.011
10726	O=C	723	TMC3	O	1	-0.57	15.9994
10727	HCMM	723	TMC3	H	1	0.15	1.0079
10728	HCMM	723	TMC3	H1	1	0.15	1.0079
10729	HCMM	723	TMC3	H2	1	0.15	1.0079
10730	C=O	723	TMC3	C7	1	0.5438	12.011
10731	C=O	723	TMC3	C8	1	0.5438	12.011
10732	O=C	723	TMC3	O1	1	-0.57	15.9994
10733	O=C	723	TMC3	O2	1	-0.57	15.9994
10734	CB	724	TMC3	C1	1	0.0862	12.011
10735	CB	724	TMC3	C2	1	-0.15	12.011
10736	CB	724	TMC3	C3	1	0.0862	12.011
10737	CB	724	TMC3	C4	1	-0.15	12.011
10738	CB	724	TMC3	C5	1	0.0862	12.011
10739	CB	724	TMC3	C6	1	-0.15	12.011
10740	C=O	724	TMC3	C	1	0.5438	12.011
10741	O=C	724	TMC3	O	1	-0.57	15.9994
10742	HCMM	724	TMC3	H	1	0.15	1.0079
10743	HCMM	724	TMC3	H1	1	0.15	1.0079
10744	HCMM	724	TMC3	H2	1	0.15	1.0079
10745	C=O	724	TMC3	C7	1	0.5438	12.011
10746	C=O	724	TMC3	C8	1	0.5438	12.011
10747	O=C	724	TMC3	O1	1	-0.57	15.9994
10748	O=C	724	TMC3	O2	1	-0.57	15.9994
10749	CB	725	TMC3	C1	1	0.0862	12.011
10750	CB	725	TMC3	C2	1	-0.15	12.011
10751	CB	725	TMC3	C3	1	0.0862	12.011
10752	CB	725	TMC3	C4	1	-0.15	12.011
10753	CB	725	TMC3	C5	1	0.0862	12.011
10754	CB	725	TMC3	C6	1	-0.15	12.011
10755	C=O	725	TMC3	C	1	0.5438	12.011
10756	O=C	725	TMC3	O	1	-0.57	15.9994
10757	HCMM	725	TMC3	H	1	0.15	1.0079
10758	HCMM	725	TMC3	H1	1	0.15	1.0079
10759	HCMM	725	TMC3	H2	1	0.15	1.0079
10760	C=O	725	TMC3	C7	1	0.5438	12.011
10761	C=O	725	TMC3	C8	1	0.5438	12.011
10762	O=C	725	TMC3	O1	1	-0.57	15.9994
10763	O=C	725	TMC3	O2	1	-0.57	15.9994
10764	CB	726	MPD2	C	1	-0.15	12.011
10765	CB	726	MPD2	C1	1	0.117	12.011
10766	CB	726	MPD2	C2	1	-0.15	12.011
10767	CB	726	MPD2	C3	1	0.117	12.011
10768	CB	726	MPD2	C4	1	-0.15	12.011
10769	CB	726	MPD2	C5	1	-0.15	12.011
10770	HCMM	726	MPD2	H	1	0.15	1.0079
10771	HCMM	726	MPD2	H1	1	0.15	1.0079
10772	HCMM	726	MPD2	H2	1	0.15	1.0079
10773	HCMM	726	MPD2	H3	1	0.15	1.0079
10774	NC=O	726	MPD2	N	1	-0.547	14.0067
10775	HNCO	726	MPD2	H5	1	0.37	1.0079
10776	NC=O	726	MPD2	N1	1	-0.547	14.0067
10777	HNCO	726	MPD2	H7	1	0.37	1.0079
10778	CB	727	TMC3	C1	1	0.0862	12.011
10779	CB	727	TMC3	C2	1	-0.15	12.011
10780	CB	727	TMC3	C3	1	0.0862	12.011
10781	CB	727	TMC3	C4	1	-0.15	12.011
10782	CB	727	TMC3	C5	1	0.0862	12.011
10783	CB	727	TMC3	C6	1	-0.15	12.011
10784	C=O	727	TMC3	C	1	0.5438	12.011
10785	O=C	727	TMC3	O	1	-0.57	15.9994
10786	HCMM	727	TMC3	H	1	0.15	1.0079
10787	HCMM	727	TMC3	H1	1	0.15	1.0079
10788	HCMM	727	TMC3	H2	1	0.15	1.0079
10789	C=O	727	TMC3	C7	1	0.5438	12.011
10790	C=O	727	TMC3	C8	1	0.5438	12.011
10791	O=C	727	TMC3	O1	1	-0.57	15.9994
10792	O=C	727	TMC3	O2	1	-0.57	15.9994
10793	CB	728	TMC3	C1	1	0.0862	12.011
10794	CB	728	TMC3	C2	1	-0.15	12.011
10795	CB	728	TMC3	C3	1	0.0862	12.011
10796	CB	728	TMC3	C4	1	-0.15	12.011
10797	CB	728	TMC3	C5	1	0.0862	12.011
10798	CB	728	TMC3	C6	1	-0.15	12.011
10799	C=O	728	TMC3	C	1	0.5438	12.011
10800	O=C	728	TMC3	O	1	-0.57	15.9994
10801	HCMM	728	TMC3	H	1	0.15	1.0079
10802	HCMM	728	TMC3	H1	1	0.15	1.0079
10803	HCMM	728	TMC3	H2	1	0.15	1.0079
10804	C=O	728	TMC3	C7	1	0.5438	12.011
10805	C=O	728	TMC3	C8	1	0.5438	12.011
10806	O=C	728	TMC3	O1	1	-0.57	15.9994
10807	O=C	728	TMC3	O2	1	-0.57	15.9994
10808	CB	729	MPD2	C	1	-0.15	12.011
10809	CB	729	MPD2	C1	1	0.117	12.011
10810	CB	729	MPD2	C2	1	-0.15	12.011
10811	CB	729	MPD2	C3	1	0.117	12.011
10812	CB	729	MPD2	C4	1	-0.15	12.011
10813	CB	729	MPD2	C5	1	-0.15	12.011
10814	HCMM	729	MPD2	H	1	0.15	1.0079
10815	HCMM	729	MPD2	H1	1	0.15	1.0079
10816	HCMM	729	MPD2	H2	1	0.15	1.0079
10817	HCMM	729	MPD2	H3	1	0.15	1.0079
10818	NC=O	729	MPD2	N	1	-0.547	14.0067
10819	HNCO	729	MPD2	H5	1	0.37	1.0079
10820	NC=O	729	MPD2	N1	1	-0.547	14.0067
10821	HNCO	729	MPD2	H7	1	0.37	1.0079
10822	CB	730	TMC3	C1	1	0.0862	12.011
10823	CB	730	TMC3	C2	1	-0.15	12.011
10824	CB	730	TMC3	C3	1	0.0862	12.011
10825	CB	730	TMC3	C4	1	-0.15	12.011
10826	CB	730	TMC3	C5	1	0.0862	12.011
10827	CB	730	TMC3	C6	1	-0.15	12.011
10828	C=O	730	TMC3	C	1	0.5438	12.011
10829	O=C	730	TMC3	O	1	-0.57	15.9994
10830	HCMM	730	TMC3	H	1	0.15	1.0079
10831	HCMM	730	TMC3	H1	1	0.15	1.0079
10832	HCMM	730	TMC3	H2	1	0.15	1.0079
10833	C=O	730	TMC3	C7	1	0.5438	12.011
10834	C=O	730	TMC3	C8	1	0.5438	12.011
10835	O=C	730	TMC3	O1	1	-0.57	15.9994
10836	O=C	730	TMC3	O2	1	-0.57	15.9994
10837	CB	731	MPD2	C	1	-0.15	12.011
10838	CB	731	MPD2	C1	1	0.117	12.011
10839	CB	731	MPD2	C2	1	-0.15	12.011
10840	CB	731	MPD2	C3	1	0.117	12.011
10841	CB	731	MPD2	C4	1	-0.15	12.011
10842	CB	731	MPD2	C5	1	-0.15	12.011
10843	HCMM	731	MPD2	H	1	0.15	1.0079
10844	HCMM	731	MPD2	H1	1	0.15	1.0079
10845	HCMM	731	MPD2	H2	1	0.15	1.0079
10846	HCMM	731	MPD2	H3	1	0.15	1.0079
10847	NC=O	731	MPD2	N	1	-0.547	14.0067
10848	HNCO	731	MPD2	H5	1	0.37	1.0079
10849	NC=O	731	MPD2	N1	1	-0.547	14.0067
10850	HNCO	731	MPD2	H7	1	0.37	1.0079
10851	CB	732	TMC3	C1	1	0.0862	12.011
10852	CB	732	TMC3	C2	1	-0.15	12.011
10853	CB	732	TMC3	C3	1	0.0862	12.011
10854	CB	732	TMC3	C4	1	-0.15	12.011
10855	CB	732	TMC3	C5	1	0.0862	12.011
10856	CB	732	TMC3	C6	1	-0.15	12.011
10857	C=O	732	TMC3	C	1	0.5438	12.011
10858	O=C	732	TMC3	O	1	-0.57	15.9994
10859	HCMM	732	TMC3	H	1	0.15	1.0079
10860	HCMM	732	TMC3	H1	1	0.15	1.0079
10861	HCMM	732	TMC3	H2	1	0.15	1.0079
10862	C=O	732	TMC3	C7	1	0.5438	12.011
10863	C=O	732	TMC3	C8	1	0.5438	12.011
10864	O=C	732	TMC3	O1	1	-0.57	15.9994
10865	O=C	732	TMC3	O2	1	-0.57	15.9994
10866	CB	733	TMC3	C1	1	0.0862	12.011
10867	CB	733	TMC3	C2	1	-0.15	12.011
10868	CB	733	TMC3	C3	1	0.0862	12.011
10869	CB	733	TMC3	C4	1	-0.15	12.011
10870	CB	733	TMC3	C5	1	0.0862	12.011
10871	CB	733	TMC3	C6	1	-0.15	12.011
10872	C=O	733	TMC3	C	1	0.5438	12.011
10873	O=C	733	TMC3	O	1	-0.57	15.9994
10874	HCMM	733	TMC3	H	1	0.15	1.0079
10875	HCMM	733	TMC3	H1	1	0.15	1.0079
10876	HCMM	733	TMC3	H2	1	0.15	1.0079
10877	C=O	733	TMC3	C7	1	0.5438	12.011
10878	C=O	733	TMC3	C8	1	0.5438	12.011
10879	O=C	733	TMC3	O1	1	-0.57	15.9994
10880	O=C	733	TMC3	O2	1	-0.57	15.9994
10881	CB	734	MPD2	C	1	-0.15	12.011
10882	CB	734	MPD2	C1	1	0.117	12.011
10883	CB	734	MPD2	C2	1	-0.15	12.011
10884	CB	734	MPD2	C3	1	0.117	12.011
10885	CB	734	MPD2	C4	1	-0.15	12.011
10886	CB	734	MPD2	C5	1	-0.15	12.011
10887	HCMM	734	MPD2	H	1	0.15	1.0079
10888	HCMM	734	MPD2	H1	1	0.15	1.0079
10889	HCMM	734	MPD2	H2	1	0.15	1.0079
10890	HCMM	734	MPD2	H3	1	0.15	1.0079
10891	NC=O	734	MPD2	N	1	-0.547	14.0067
10892	HNCO	734	MPD2	H5	1	0.37	1.0079
10893	NC=O	734	MPD2	N1	1	-0.547	14.0067
10894	HNCO	734	MPD2	H7	1	0.37	1.0079
10895	CB	735	TMC3	C1	1	0.0862	12.011
10896	CB	735	TMC3	C2	1	-0.15	12.011
10897	CB	735	TMC3	C3	1	0.0862	12.011
10898	CB	735	TMC3	C4	1	-0.15	12.011
10899	CB	735	TMC3	C5	1	0.0862	12.011
10900	CB	735	TMC3	C6	1	-0.15	12.011
10901	C=O	735	TMC3	C	1	0.5438	12.011
10902	O=C	735	TMC3	O	1	-0.57	15.9994
10903	HCMM	735	TMC3	H	1	0.15	1.0079
10904	HCMM	735	TMC3	H1	1	0.15	1.0079
10905	HCMM	735	TMC3	H2	1	0.15	1.0079
10906	C=O	735	TMC3	C7	1	0.5438	12.011
10907	C=O	735	TMC3	C8	1	0.5438	12.011
10908	O=C	735	TMC3	O1	1	-0.57	15.9994
10909	O=C	735	TMC3	O2	1	-0.57	15.9994
10910	CB	736	MPD2	C	1	-0.15	12.011
10911	CB	736	MPD2	C1	1	0.117	12.011
10912	CB	736	MPD2	C2	1	-0.15	12.011
10913	CB	736	MPD2	C3	1	0.117	12.011
10914	CB	736	MPD2	C4	1	-0.15	12.011
10915	CB	736	MPD2	C5	1	-0.15	12.011
10916	HCMM	736	MPD2	H	1	0.15	1.0079
10917	HCMM	736	MPD2	H1	1	0.15	1.0079
10918	HCMM	736	MPD2	H2	1	0.15	1.0079
10919	HCMM	736	MPD2	H3	1	0.15	1.0079
10920	NC=O	736	MPD2	N	1	-0.547	14.0067
10921	HNCO	736	MPD2	H5	1	0.37	1.0079
10922	NC=O	736	MPD2	N1	1	-0.547	14.0067
10923	HNCO	736	MPD2	H7	1	0.37	1.0079
10924	CB	737	TMC3	C1	1	0.0862	12.011
10925	CB	737	TMC3	C2	1	-0.15	12.011
10926	CB	737	TMC3	C3	1	0.0862	12.011
10927	CB	737	TMC3	C4	1	-0.15	12.011
10928	CB	737	TMC3	C5	1	0.0862	12.011
10929	CB	737	TMC3	C6	1	-0.15	12.011
10930	C=O	737	TMC3	C	1	0.5438	12.011
10931	O=C	737	TMC3	O	1	-0.57	15.9994
10932	HCMM	737	TMC3	H	1	0.15	1.0079
10933	HCMM	737	TMC3	H1	1	0.15	1.0079
10934	HCMM	737	TMC3	H2	1	0.15	1.0079
10935	C=O	737	TMC3	C7	1	0.5438	12.011
10936	C=O	737	TMC3	C8	1	0.5438	12.011
10937	O=C	737	TMC3	O1	1	-0.57	15.9994
10938	O=C	737	TMC3	O2	1	-0.57	15.9994
10939	CB	738	MPD2	C	1	-0.15	12.011
10940	CB	738	MPD2	C1	1	0.117	12.011
10941	CB	738	MPD2	C2	1	-0.15	12.011
10942	CB	738	MPD2	C3	1	0.117	12.011
10943	CB	738	MPD2	C4	1	-0.15	12.011
10944	CB	738	MPD2	C5	1	-0.15	12.011
10945	HCMM	738	MPD2	H	1	0.15	1.0079
10946	HCMM	738	MPD2	H1	1	0.15	1.0079
10947	HCMM	738	MPD2	H2	1	0.15	1.0079
10948	HCMM	738	MPD2	H3	1	0.15	1.0079
10949	NC=O	738	MPD2	N	1	-0.547	14.0067
10950	HNCO	738	MPD2	H5	1	0.37	1.0079
10951	NC=O	738	MPD2	N1	1	-0.547	14.0067
10952	HNCO	738	MPD2	H7	1	0.37	1.0079
10953	CB	739	TMC3	C1	1	0.0862	12.011
10954	CB	739	TMC3	C2	1	-0.15	12.011
10955	CB	739	TMC3	C3	1	0.0862	12.011
10956	CB	739	TMC3	C4	1	-0.15	12.011
10957	CB	739	TMC3	C5	1	0.0862	12.011
10958	CB	739	TMC3	C6	1	-0.15	12.011
10959	C=O	739	TMC3	C	1	0.5438	12.011
10960	O=C	739	TMC3	O	1	-0.57	15.9994
10961	HCMM	739	TMC3	H	1	0.15	1.0079
10962	HCMM	739	TMC3	H1	1	0.15	1.0079
10963	HCMM	739	TMC3	H2	1	0.15	1.0079
10964	C=O	739	TMC3	C7	1	0.5438	12.011
10965	C=O	739	TMC3	C8	1	0.5438	12.011
10966	O=C	739	TMC3	O1	1	-0.57	15.9994
10967	O=C	739	TMC3	O2	1	-0.57	15.9994
10968	CB	740	TMC3	C1	1	0.0862	12.011
10969	CB	740	TMC3	C2	1	-0.15	12.011
10970	CB	740	TMC3	C3	1	0.0862	12.011
10971	CB	740	TMC3	C4	1	-0.15	12.011
10972	CB	740	TMC3	C5	1	0.0862	12.011
10973	CB	740	TMC3	C6	1	-0.15	12.011
10974	C=O	740	TMC3	C	1	0.5438	12.011
10975	O=C	740	TMC3	O	1	-0.57	15.9994
10976	HCMM	740	TMC3	H	1	0.15	1.0079
10977	HCMM	740	TMC3	H1	1	0.15	1.0079
10978	HCMM	740	TMC3	H2	1	0.15	1.0079
10979	C=O	740	TMC3	C7	1	0.5438	12.011
10980	C=O	740	TMC3	C8	1	0.5438	12.011
10981	O=C	740	TMC3	O1	1	-0.57	15.9994
10982	O=C	740	TMC3	O2	1	-0.57	15.9994
10983	CB	741	TMC3	C1	1	0.0862	12.011
10984	CB	741	TMC3	C2	1	-0.15	12.011
10985	CB	741	TMC3	C3	1	0.0862	12.011
10986	CB	741	TMC3	C4	1	-0.15	12.011
10987	CB	741	TMC3	C5	1	0.0862	12.011
10988	CB	741	TMC3	C6	1	-0.15	12.011
10989	C=O	741	TMC3	C	1	0.5438	12.011
10990	O=C	741	TMC3	O	1	-0.57	15.9994
10991	HCMM	741	TMC3	H	1	0.15	1.0079
10992	HCMM	741	TMC3	H1	1	0.15	1.0079
10993	HCMM	741	TMC3	H2	1	0.15	1.0079
10994	C=O	741	TMC3	C7	1	0.5438	12.011
10995	C=O	741	TMC3	C8	1	0.5438	12.011
10996	O=C	741	TMC3	O1	1	-0.57	15.9994
10997	O=C	741	TMC3	O2	1	-0.57	15.9994
10998	CB	742	TMC3	C1	1	0.0862	12.011
10999	CB	742	TMC3	C2	1	-0.15	12.011
11000	CB	742	TMC3	C3	1	0.0862	12.011
11001	CB	742	TMC3	C4	1	-0.15	12.011
11002	CB	742	TMC3	C5	1	0.0862	12.011
11003	CB	742	TMC3	C6	1	-0.15	12.011
11004	C=O	742	TMC3	C	1	0.5438	12.011
11005	O=C	742	TMC3	O	1	-0.57	15.9994
11006	HCMM	742	TMC3	H	1	0.15	1.0079
11007	HCMM	742	TMC3	H1	1	0.15	1.0079
11008	HCMM	742	TMC3	H2	1	0.15	1.0079
11009	C=O	742	TMC3	C7	1	0.5438	12.011
11010	C=O	742	TMC3	C8	1	0.5438	12.011
11011	O=C	742	TMC3	O1	1	-0.57	15.9994
11012	O=C	742	TMC3	O2	1	-0.57	15.9994
11013	CB	743	MPD2	C	1	-0.15	12.011
11014	CB	743	MPD2	C1	1	0.117	12.011
11015	CB	743	MPD2	C2	1	-0.15	12.011
11016	CB	743	MPD2	C3	1	0.117	12.011
11017	CB	743	MPD2	C4	1	-0.15	12.011
11018	CB	743	MPD2	C5	1	-0.15	12.011
11019	HCMM	743	MPD2	H	1	0.15	1.0079
11020	HCMM	743	MPD2	H1	1	0.15	1.0079
11021	HCMM	743	MPD2	H2	1	0.15	1.0079
11022	HCMM	743	MPD2	H3	1	0.15	1.0079
11023	NC=O	743	MPD2	N	1	-0.547	14.0067
11024	HNCO	743	MPD2	H5	1	0.37	1.0079
11025	NC=O	743	MPD2	N1	1	-0.547	14.0067
11026	HNCO	743	MPD2	H7	1	0.37	1.0079
11027	CB	744	TMC3	C1	1	0.0862	12.011
11028	CB	744	TMC3	C2	1	-0.15	12.011
11029	CB	744	TMC3	C3	1	0.0862	12.011
11030	CB	744	TMC3	C4	1	-0.15	12.011
11031	CB	744	TMC3	C5	1	0.0862	12.011
11032	CB	744	TMC3	C6	1	-0.15	12.011
11033	C=O	744	TMC3	C	1	0.5438	12.011
11034	O=C	744	TMC3	O	1	-0.57	15.9994
11035	HCMM	744	TMC3	H	1	0.15	1.0079
11036	HCMM	744	TMC3	H1	1	0.15	1.0079
11037	HCMM	744	TMC3	H2	1	0.15	1.0079
11038	C=O	744	TMC3	C7	1	0.5438	12.011
11039	C=O	744	TMC3	C8	1	0.5438	12.011
11040	O=C	744	TMC3	O1	1	-0.57	15.9994
11041	O=C	744	TMC3	O2	1	-0.57	15.9994
11042	CB	745	TMC3	C1	1	0.0862	12.011
11043	CB	745	TMC3	C2	1	-0.15	12.011
11044	CB	745	TMC3	C3	1	0.0862	12.011
11045	CB	745	TMC3	C4	1	-0.15	12.011
11046	CB	745	TMC3	C5	1	0.0862	12.011
11047	CB	745	TMC3	C6	1	-0.15	12.011
11048	C=O	745	TMC3	C	1	0.5438	12.011
11049	O=C	745	TMC3	O	1	-0.57	15.9994
11050	HCMM	745	TMC3	H	1	0.15	1.0079
11051	HCMM	745	TMC3	H1	1	0.15	1.0079
11052	HCMM	745	TMC3	H2	1	0.15	1.0079
11053	C=O	745	TMC3	C7	1	0.5438	12.011
11054	C=O	745	TMC3	C8	1	0.5438	12.011
11055	O=C	745	TMC3	O1	1	-0.57	15.9994
11056	O=C	745	TMC3	O2	1	-0.57	15.9994
11057	CB	746	TMC3	C1	1	0.0862	12.011
11058	CB	746	TMC3	C2	1	-0.15	12.011
11059	CB	746	TMC3	C3	1	0.0862	12.011
11060	CB	746	TMC3	C4	1	-0.15	12.011
11061	CB	746	TMC3	C5	1	0.0862	12.011
11062	CB	746	TMC3	C6	1	-0.15	12.011
11063	C=O	746	TMC3	C	1	0.5438	12.011
11064	O=C	746	TMC3	O	1	-0.57	15.9994
11065	HCMM	746	TMC3	H	1	0.15	1.0079
11066	HCMM	746	TMC3	H1	1	0.15	1.0079
11067	HCMM	746	TMC3	H2	1	0.15	1.0079
11068	C=O	746	TMC3	C7	1	0.5438	12.011
11069	C=O	746	TMC3	C8	1	0.5438	12.011
11070	O=C	746	TMC3	O1	1	-0.57	15.9994
11071	O=C	746	TMC3	O2	1	-0.57	15.9994
11072	CB	747	TMC3	C1	1	0.0862	12.011
11073	CB	747	TMC3	C2	1	-0.15	12.011
11074	CB	747	TMC3	C3	1	0.0862	12.011
11075	CB	747	TMC3	C4	1	-0.15	12.011
11076	CB	747	TMC3	C5	1	0.0862	12.011
11077	CB	747	TMC3	C6	1	-0.15	12.011
11078	C=O	747	TMC3	C	1	0.5438	12.011
11079	O=C	747	TMC3	O	1	-0.57	15.9994
11080	HCMM	747	TMC3	H	1	0.15	1.0079
11081	HCMM	747	TMC3	H1	1	0.15	1.0079
11082	HCMM	747	TMC3	H2	1	0.15	1.0079
11083	C=O	747	TMC3	C7	1	0.5438	12.011
11084	C=O	747	TMC3	C8	1	0.5438	12.011
11085	O=C	747	TMC3	O1	1	-0.57	15.9994
11086	O=C	747	TMC3	O2	1	-0.57	15.9994
11087	CB	748	MPD2	C	1	-0.15	12.011
11088	CB	748	MPD2	C1	1	0.117	12.011
11089	CB	748	MPD2	C2	1	-0.15	12.011
11090	CB	748	MPD2	C3	1	0.117	12.011
11091	CB	748	MPD2	C4	1	-0.15	12.011
11092	CB	748	MPD2	C5	1	-0.15	12.011
11093	HCMM	748	MPD2	H	1	0.15	1.0079
11094	HCMM	748	MPD2	H1	1	0.15	1.0079
11095	HCMM	748	MPD2	H2	1	0.15	1.0079
11096	HCMM	748	MPD2	H3	1	0.15	1.0079
11097	NC=O	748	MPD2	N	1	-0.547	14.0067
11098	HNCO	748	MPD2	H5	1	0.37	1.0079
11099	NC=O	748	MPD2	N1	1	-0.547	14.0067
11100	HNCO	748	MPD2	H7	1	0.37	1.0079
11101	CB	749	TMC3	C1	1	0.0862	12.011
11102	CB	749	TMC3	C2	1	-0.15	12.011
11103	CB	749	TMC3	C3	1	0.0862	12.011
11104	CB	749	TMC3	C4	1	-0.15	12.011
11105	CB	749	TMC3	C5	1	0.0862	12.011
11106	CB	749	TMC3	C6	1	-0.15	12.011
11107	C=O	749	TMC3	C	1	0.5438	12.011
11108	O=C	749	TMC3	O	1	-0.57	15.9994
11109	HCMM	749	TMC3	H	1	0.15	1.0079
11110	HCMM	749	TMC3	H1	1	0.15	1.0079
11111	HCMM	749	TMC3	H2	1	0.15	1.0079
11112	C=O	749	TMC3	C7	1	0.5438	12.011
11113	C=O	749	TMC3	C8	1	0.5438	12.011
11114	O=C	749	TMC3	O1	1	-0.57	15.9994
11115	O=C	749	TMC3	O2	1	-0.57	15.9994
11116	CB	750	MPD2	C	1	-0.15	12.011
11117	CB	750	MPD2	C1	1	0.117	12.011
11118	CB	750	MPD2	C2	1	-0.15	12.011
11119	CB	750	MPD2	C3	1	0.117	12.011
11120	CB	750	MPD2	C4	1	-0.15	12.011
11121	CB	750	MPD2	C5	1	-0.15	12.011
11122	HCMM	750	MPD2	H	1	0.15	1.0079
11123	HCMM	750	MPD2	H1	1	0.15	1.0079
11124	HCMM	750	MPD2	H2	1	0.15	1.0079
11125	HCMM	750	MPD2	H3	1	0.15	1.0079
11126	NC=O	750	MPD2	N	1	-0.547	14.0067
11127	HNCO	750	MPD2	H5	1	0.37	1.0079
11128	NC=O	750	MPD2	N1	1	-0.547	14.0067
11129	HNCO	750	MPD2	H7	1	0.37	1.0079
11130	CB	751	TMC3	C1	1	0.0862	12.011
11131	CB	751	TMC3	C2	1	-0.15	12.011
11132	CB	751	TMC3	C3	1	0.0862	12.011
11133	CB	751	TMC3	C4	1	-0.15	12.011
11134	CB	751	TMC3	C5	1	0.0862	12.011
11135	CB	751	TMC3	C6	1	-0.15	12.011
11136	C=O	751	TMC3	C	1	0.5438	12.011
11137	O=C	751	TMC3	O	1	-0.57	15.9994
11138	HCMM	751	TMC3	H	1	0.15	1.0079
11139	HCMM	751	TMC3	H1	1	0.15	1.0079
11140	HCMM	751	TMC3	H2	1	0.15	1.0079
11141	C=O	751	TMC3	C7	1	0.5438	12.011
11142	C=O	751	TMC3	C8	1	0.5438	12.011
11143	O=C	751	TMC3	O1	1	-0.57	15.9994
11144	O=C	751	TMC3	O2	1	-0.57	15.9994
11145	CB	752	TMC3	C1	1	0.0862	12.011
11146	CB	752	TMC3	C2	1	-0.15	12.011
11147	CB	752	TMC3	C3	1	0.0862	12.011
11148	CB	752	TMC3	C4	1	-0.15	12.011
11149	CB	752	TMC3	C5	1	0.0862	12.011
11150	CB	752	TMC3	C6	1	-0.15	12.011
11151	C=O	752	TMC3	C	1	0.5438	12.011
11152	O=C	752	TMC3	O	1	-0.57	15.9994
11153	HCMM	752	TMC3	H	1	0.15	1.0079
11154	HCMM	752	TMC3	H1	1	0.15	1.0079
11155	HCMM	752	TMC3	H2	1	0.15	1.0079
11156	C=O	752	TMC3	C7	1	0.5438	12.011
11157	C=O	752	TMC3	C8	1	0.5438	12.011
11158	O=C	752	TMC3	O1	1	-0.57	15.9994
11159	O=C	752	TMC3	O2	1	-0.57	15.9994
11160	CB	753	TMC3	C1	1	0.0862	12.011
11161	CB	753	TMC3	C2	1	-0.15	12.011
11162	CB	753	TMC3	C3	1	0.0862	12.011
11163	CB	753	TMC3	C4	1	-0.15	12.011
11164	CB	753	TMC3	C5	1	0.0862	12.011
11165	CB	753	TMC3	C6	1	-0.15	12.011
11166	C=O	753	TMC3	C	1	0.5438	12.011
11167	O=C	753	TMC3	O	1	-0.57	15.9994
11168	HCMM	753	TMC3	H	1	0.15	1.0079
11169	HCMM	753	TMC3	H1	1	0.15	1.0079
11170	HCMM	753	TMC3	H2	1	0.15	1.0079
11171	C=O	753	TMC3	C7	1	0.5438	12.011
11172	C=O	753	TMC3	C8	1	0.5438	12.011
11173	O=C	753	TMC3	O1	1	-0.57	15.9994
11174	O=C	753	TMC3	O2	1	-0.57	15.9994
11175	CB	754	MPD2	C	1	-0.15	12.011
11176	CB	754	MPD2	C1	1	0.117	12.011
11177	CB	754	MPD2	C2	1	-0.15	12.011
11178	CB	754	MPD2	C3	1	0.117	12.011
11179	CB	754	MPD2	C4	1	-0.15	12.011
11180	CB	754	MPD2	C5	1	-0.15	12.011
11181	HCMM	754	MPD2	H	1	0.15	1.0079
11182	HCMM	754	MPD2	H1	1	0.15	1.0079
11183	HCMM	754	MPD2	H2	1	0.15	1.0079
11184	HCMM	754	MPD2	H3	1	0.15	1.0079
11185	NC=O	754	MPD2	N	1	-0.547	14.0067
11186	HNCO	754	MPD2	H5	1	0.37	1.0079
11187	NC=O	754	MPD2	N1	1	-0.547	14.0067
11188	HNCO	754	MPD2	H7	1	0.37	1.0079
11189	CB	755	MPD2	C	1	-0.15	12.011
11190	CB	755	MPD2	C1	1	0.117	12.011
11191	CB	755	MPD2	C2	1	-0.15	12.011
11192	CB	755	MPD2	C3	1	0.117	12.011
11193	CB	755	MPD2	C4	1	-0.15	12.011
11194	CB	755	MPD2	C5	1	-0.15	12.011
11195	HCMM	755	MPD2	H	1	0.15	1.0079
11196	HCMM	755	MPD2	H1	1	0.15	1.0079
11197	HCMM	755	MPD2	H2	1	0.15	1.0079
11198	HCMM	755	MPD2	H3	1	0.15	1.0079
11199	NC=O	755	MPD2	N	1	-0.547	14.0067
11200	HNCO	755	MPD2	H5	1	0.37	1.0079
11201	NC=O	755	MPD2	N1	1	-0.547	14.0067
11202	HNCO	755	MPD2	H7	1	0.37	1.0079
11203	CB	756	MPD2	C	1	-0.15	12.011
11204	CB	756	MPD2	C1	1	0.117	12.011
11205	CB	756	MPD2	C2	1	-0.15	12.011
11206	CB	756	MPD2	C3	1	0.117	12.011
11207	CB	756	MPD2	C4	1	-0.15	12.011
11208	CB	756	MPD2	C5	1	-0.15	12.011
11209	HCMM	756	MPD2	H	1	0.15	1.0079
11210	HCMM	756	MPD2	H1	1	0.15	1.0079
11211	HCMM	756	MPD2	H2	1	0.15	1.0079
11212	HCMM	756	MPD2	H3	1	0.15	1.0079
11213	NC=O	756	MPD2	N	1	-0.547	14.0067
11214	HNCO	756	MPD2	H5	1	0.37	1.0079
11215	NC=O	756	MPD2	N1	1	-0.547	14.0067
11216	HNCO	756	MPD2	H7	1	0.37	1.0079
11217	CB	757	MPD2	C	1	-0.15	12.011
11218	CB	757	MPD2	C1	1	0.117	12.011
11219	CB	757	MPD2	C2	1	-0.15	12.011
11220	CB	757	MPD2	C3	1	0.117	12.011
11221	CB	757	MPD2	C4	1	-0.15	12.011
11222	CB	757	MPD2	C5	1	-0.15	12.011
11223	HCMM	757	MPD2	H	1	0.15	1.0079
11224	HCMM	757	MPD2	H1	1	0.15	1.0079
11225	HCMM	757	MPD2	H2	1	0.15	1.0079
11226	HCMM	757	MPD2	H3	1	0.15	1.0079
11227	NC=O	757	MPD2	N	1	-0.547	14.0067
11228	HNCO	757	MPD2	H5	1	0.37	1.0079
11229	NC=O	757	MPD2	N1	1	-0.547	14.0067
11230	HNCO	757	MPD2	H7	1	0.37	1.0079
11231	CB	758	MPD2	C	1	-0.15	12.011
11232	CB	758	MPD2	C1	1	0.117	12.011
11233	CB	758	MPD2	C2	1	-0.15	12.011
11234	CB	758	MPD2	C3	1	0.117	12.011
11235	CB	758	MPD2	C4	1	-0.15	12.011
11236	CB	758	MPD2	C5	1	-0.15	12.011
11237	HCMM	758	MPD2	H	1	0.15	1.0079
11238	HCMM	758	MPD2	H1	1	0.15	1.0079
11239	HCMM	758	MPD2	H2	1	0.15	1.0079
11240	HCMM	758	MPD2	H3	1	0.15	1.0079
11241	NC=O	758	MPD2	N	1	-0.547	14.0067
11242	HNCO	758	MPD2	H5	1	0.37	1.0079
11243	NC=O	758	MPD2	N1	1	-0.547	14.0067
11244	HNCO	758	MPD2	H7	1	0.37	1.0079
11245	CB	759	MPD2	C	1	-0.15	12.011
11246	CB	759	MPD2	C1	1	0.117	12.011
11247	CB	759	MPD2	C2	1	-0.15	12.011
11248	CB	759	MPD2	C3	1	0.117	12.011
11249	CB	759	MPD2	C4	1	-0.15	12.011
11250	CB	759	MPD2	C5	1	-0.15	12.011
11251	HCMM	759	MPD2	H	1	0.15	1.0079
11252	HCMM	759	MPD2	H1	1	0.15	1.0079
11253	HCMM	759	MPD2	H2	1	0.15	1.0079
11254	HCMM	759	MPD2	H3	1	0.15	1.0079
11255	NC=O	759	MPD2	N	1	-0.547	14.0067
11256	HNCO	759	MPD2	H5	1	0.37	1.0079
11257	NC=O	759	MPD2	N1	1	-0.547	14.0067
11258	HNCO	759	MPD2	H7	1	0.37	1.0079
11259	CB	760	MPD2	C	1	-0.15	12.011
11260	CB	760	MPD2	C1	1	0.117	12.011
11261	CB	760	MPD2	C2	1	-0.15	12.011
11262	CB	760	MPD2	C3	1	0.117	12.011
11263	CB	760	MPD2	C4	1	-0.15	12.011
11264	CB	760	MPD2	C5	1	-0.15	12.011
11265	HCMM	760	MPD2	H	1	0.15	1.0079
11266	HCMM	760	MPD2	H1	1	0.15	1.0079
11267	HCMM	760	MPD2	H2	1	0.15	1.0079
11268	HCMM	760	MPD2	H3	1	0.15	1.0079
11269	NC=O	760	MPD2	N	1	-0.547	14.0067
11270	HNCO	760	MPD2	H5	1	0.37	1.0079
11271	NC=O	760	MPD2	N1	1	-0.547	14.0067
11272	HNCO	760	MPD2	H7	1	0.37	1.0079
11273	CB	761	MPD2	C	1	-0.15	12.011
11274	CB	761	MPD2	C1	1	0.117	12.011
11275	CB	761	MPD2	C2	1	-0.15	12.011
11276	CB	761	MPD2	C3	1	0.117	12.011
11277	CB	761	MPD2	C4	1	-0.15	12.011
11278	CB	761	MPD2	C5	1	-0.15	12.011
11279	HCMM	761	MPD2	H	1	0.15	1.0079
11280	HCMM	761	MPD2	H1	1	0.15	1.0079
11281	HCMM	761	MPD2	H2	1	0.15	1.0079
11282	HCMM	761	MPD2	H3	1	0.15	1.0079
11283	NC=O	761	MPD2	N	1	-0.547	14.0067
11284	HNCO	761	MPD2	H5	1	0.37	1.0079
11285	NC=O	761	MPD2	N1	1	-0.547	14.0067
11286	HNCO	761	MPD2	H7	1	0.37	1.0079
11287	CB	762	MPD2	C	1	-0.15	12.011
11288	CB	762	MPD2	C1	1	0.117	12.011
11289	CB	762	MPD2	C2	1	-0.15	12.011
11290	CB	762	MPD2	C3	1	0.117	12.011
11291	CB	762	MPD2	C4	1	-0.15	12.011
11292	CB	762	MPD2	C5	1	-0.15	12.011
11293	HCMM	762	MPD2	H	1	0.15	1.0079
11294	HCMM	762	MPD2	H1	1	0.15	1.0079
11295	HCMM	762	MPD2	H2	1	0.15	1.0079
11296	HCMM	762	MPD2	H3	1	0.15	1.0079
11297	NC=O	762	MPD2	N	1	-0.547	14.0067
11298	HNCO	762	MPD2	H5	1	0.37	1.0079
11299	NC=O	762	MPD2	N1	1	-0.547	14.0067
11300	HNCO	762	MPD2	H7	1	0.37	1.0079
11301	CB	763	MPD2	C	1	-0.15	12.011
11302	CB	763	MPD2	C1	1	0.117	12.011
11303	CB	763	MPD2	C2	1	-0.15	12.011
11304	CB	763	MPD2	C3	1	0.117	12.011
11305	CB	763	MPD2	C4	1	-0.15	12.011
11306	CB	763	MPD2	C5	1	-0.15	12.011
11307	HCMM	763	MPD2	H	1	0.15	1.0079
11308	HCMM	763	MPD2	H1	1	0.15	1.0079
11309	HCMM	763	MPD2	H2	1	0.15	1.0079
11310	HCMM	763	MPD2	H3	1	0.15	1.0079
11311	NC=O	763	MPD2	N	1	-0.547	14.0067
11312	HNCO	763	MPD2	H5	1	0.37	1.0079
11313	NC=O	763	MPD2	N1	1	-0.547	14.0067
11314	HNCO	763	MPD2	H7	1	0.37	1.0079
11315	CB	764	MPD2	C	1	-0.15	12.011
11316	CB	764	MPD2	C1	1	0.117	12.011
11317	CB	764	MPD2	C2	1	-0.15	12.011
11318	CB	764	MPD2	C3	1	0.117	12.011
11319	CB	764	MPD2	C4	1	-0.15	12.011
11320	CB	764	MPD2	C5	1	-0.15	12.011
11321	HCMM	764	MPD2	H	1	0.15	1.0079
11322	HCMM	764	MPD2	H1	1	0.15	1.0079
11323	HCMM	764	MPD2	H2	1	0.15	1.0079
11324	HCMM	764	MPD2	H3	1	0.15	1.0079
11325	NC=O	764	MPD2	N	1	-0.547	14.0067
11326	HNCO	764	MPD2	H5	1	0.37	1.0079
11327	NC=O	764	MPD2	N1	1	-0.547	14.0067
11328	HNCO	764	MPD2	H7	1	0.37	1.0079
11329	CB	765	MPD2	C	1	-0.15	12.011
11330	CB	765	MPD2	C1	1	0.117	12.011
11331	CB	765	MPD2	C2	1	-0.15	12.011
11332	CB	765	MPD2	C3	1	0.117	12.011
11333	CB	765	MPD2	C4	1	-0.15	12.011
11334	CB	765	MPD2	C5	1	-0.15	12.011
11335	HCMM	765	MPD2	H	1	0.15	1.0079
11336	HCMM	765	MPD2	H1	1	0.15	1.0079
11337	HCMM	765	MPD2	H2	1	0.15	1.0079
11338	HCMM	765	MPD2	H3	1	0.15	1.0079
11339	NC=O	765	MPD2	N	1	-0.547	14.0067
11340	HNCO	765	MPD2	H5	1	0.37	1.0079
11341	NC=O	765	MPD2	N1	1	-0.547	14.0067
11342	HNCO	765	MPD2	H7	1	0.37	1.0079
11343	CB	766	MPD2	C	1	-0.15	12.011
11344	CB	766	MPD2	C1	1	0.117	12.011
11345	CB	766	MPD2	C2	1	-0.15	12.011
11346	CB	766	MPD2	C3	1	0.117	12.011
11347	CB	766	MPD2	C4	1	-0.15	12.011
11348	CB	766	MPD2	C5	1	-0.15	12.011
11349	HCMM	766	MPD2	H	1	0.15	1.0079
11350	HCMM	766	MPD2	H1	1	0.15	1.0079
11351	HCMM	766	MPD2	H2	1	0.15	1.0079
11352	HCMM	766	MPD2	H3	1	0.15	1.0079
11353	NC=O	766	MPD2	N	1	-0.547	14.0067
11354	HNCO	766	MPD2	H5	1	0.37	1.0079
11355	NC=O	766	MPD2	N1	1	-0.547	14.0067
11356	HNCO	766	MPD2	H7	1	0.37	1.0079
11357	CB	767	MPD2	C	1	-0.15	12.011
11358	CB	767	MPD2	C1	1	0.117	12.011
11359	CB	767	MPD2	C2	1	-0.15	12.011
11360	CB	767	MPD2	C3	1	0.117	12.011
11361	CB	767	MPD2	C4	1	-0.15	12.011
11362	CB	767	MPD2	C5	1	-0.15	12.011
11363	HCMM	767	MPD2	H	1	0.15	1.0079
11364	HCMM	767	MPD2	H1	1	0.15	1.0079
11365	HCMM	767	MPD2	H2	1	0.15	1.0079
11366	HCMM	767	MPD2	H3	1	0.15	1.0079
11367	NC=O	767	MPD2	N	1	-0.547	14.0067
11368	HNCO	767	MPD2	H5	1	0.37	1.0079
11369	NC=O	767	MPD2	N1	1	-0.547	14.0067
11370	HNCO	767	MPD2	H7	1	0.37	1.0079
11371	CB	768	MPD2	C	1	-0.15	12.011
11372	CB	768	MPD2	C1	1	0.117	12.011
11373	CB	768	MPD2	C2	1	-0.15	12.011
11374	CB	768	MPD2	C3	1	0.117	12.011
11375	CB	768	MPD2	C4	1	-0.15	12.011
11376	CB	768	MPD2	C5	1	-0.15	12.011
11377	HCMM	768	MPD2	H	1	0.15	1.0079
11378	HCMM	768	MPD2	H1	1	0.15	1.0079
11379	HCMM	768	MPD2	H2	1	0.15	1.0079
11380	HCMM	768	MPD2	H3	1	0.15	1.0079
11381	NC=O	768	MPD2	N	1	-0.547	14.0067
11382	HNCO	768	MPD2	H5	1	0.37	1.0079
11383	NC=O	768	MPD2	N1	1	-0.547	14.0067
11384	HNCO	768	MPD2	H7	1	0.37	1.0079
11385	CB	769	MPD2	C	1	-0.15	12.011
11386	CB	769	MPD2	C1	1	0.117	12.011
11387	CB	769	MPD2	C2	1	-0.15	12.011
11388	CB	769	MPD2	C3	1	0.117	12.011
11389	CB	769	MPD2	C4	1	-0.15	12.011
11390	CB	769	MPD2	C5	1	-0.15	12.011
11391	HCMM	769	MPD2	H	1	0.15	1.0079
11392	HCMM	769	MPD2	H1	1	0.15	1.0079
11393	HCMM	769	MPD2	H2	1	0.15	1.0079
11394	HCMM	769	MPD2	H3	1	0.15	1.0079
11395	NC=O	769	MPD2	N	1	-0.547	14.0067
11396	HNCO	769	MPD2	H5	1	0.37	1.0079
11397	NC=O	769	MPD2	N1	1	-0.547	14.0067
11398	HNCO	769	MPD2	H7	1	0.37	1.0079
11399	CB	770	MPD2	C	1	-0.15	12.011
11400	CB	770	MPD2	C1	1	0.117	12.011
11401	CB	770	MPD2	C2	1	-0.15	12.011
11402	CB	770	MPD2	C3	1	0.117	12.011
11403	CB	770	MPD2	C4	1	-0.15	12.011
11404	CB	770	MPD2	C5	1	-0.15	12.011
11405	HCMM	770	MPD2	H	1	0.15	1.0079
11406	HCMM	770	MPD2	H1	1	0.15	1.0079
11407	HCMM	770	MPD2	H2	1	0.15	1.0079
11408	HCMM	770	MPD2	H3	1	0.15	1.0079
11409	NC=O	770	MPD2	N	1	-0.547	14.0067
11410	HNCO	770	MPD2	H5	1	0.37	1.0079
11411	NC=O	770	MPD2	N1	1	-0.547	14.0067
11412	HNCO	770	MPD2	H7	1	0.37	1.0079
11413	CB	771	MPD2	C	1	-0.15	12.011
11414	CB	771	MPD2	C1	1	0.117	12.011
11415	CB	771	MPD2	C2	1	-0.15	12.011
11416	CB	771	MPD2	C3	1	0.117	12.011
11417	CB	771	MPD2	C4	1	-0.15	12.011
11418	CB	771	MPD2	C5	1	-0.15	12.011
11419	HCMM	771	MPD2	H	1	0.15	1.0079
11420	HCMM	771	MPD2	H1	1	0.15	1.0079
11421	HCMM	771	MPD2	H2	1	0.15	1.0079
11422	HCMM	771	MPD2	H3	1	0.15	1.0079
11423	NC=O	771	MPD2	N	1	-0.547	14.0067
11424	HNCO	771	MPD2	H5	1	0.37	1.0079
11425	NC=O	771	MPD2	N1	1	-0.547	14.0067
11426	HNCO	771	MPD2	H7	1	0.37	1.0079
11427	CB	772	MPD2	C	1	-0.15	12.011
11428	CB	772	MPD2	C1	1	0.117	12.011
11429	CB	772	MPD2	C2	1	-0.15	12.011
11430	CB	772	MPD2	C3	1	0.117	12.011
11431	CB	772	MPD2	C4	1	-0.15	12.011
11432	CB	772	MPD2	C5	1	-0.15	12.011
11433	HCMM	772	MPD2	H	1	0.15	1.0079
11434	HCMM	772	MPD2	H1	1	0.15	1.0079
11435	HCMM	772	MPD2	H2	1	0.15	1.0079
11436	HCMM	772	MPD2	H3	1	0.15	1.0079
11437	NC=O	772	MPD2	N	1	-0.547	14.0067
11438	HNCO	772	MPD2	H5	1	0.37	1.0079
11439	NC=O	772	MPD2	N1	1	-0.547	14.0067
11440	HNCO	772	MPD2	H7	1	0.37	1.0079
11441	CB	773	MPD2	C	1	-0.15	12.011
11442	CB	773	MPD2	C1	1	0.117	12.011
11443	CB	773	MPD2	C2	1	-0.15	12.011
11444	CB	773	MPD2	C3	1	0.117	12.011
11445	CB	773	MPD2	C4	1	-0.15	12.011
11446	CB	773	MPD2	C5	1	-0.15	12.011
11447	HCMM	773	MPD2	H	1	0.15	1.0079
11448	HCMM	773	MPD2	H1	1	0.15	1.0079
11449	HCMM	773	MPD2	H2	1	0.15	1.0079
11450	HCMM	773	MPD2	H3	1	0.15	1.0079
11451	NC=O	773	MPD2	N	1	-0.547	14.0067
11452	HNCO	773	MPD2	H5	1	0.37	1.0079
11453	NC=O	773	MPD2	N1	1	-0.547	14.0067
11454	HNCO	773	MPD2	H7	1	0.37	1.0079
11455	CB	774	MPD2	C	1	-0.15	12.011
11456	CB	774	MPD2	C1	1	0.117	12.011
11457	CB	774	MPD2	C2	1	-0.15	12.011
11458	CB	774	MPD2	C3	1	0.117	12.011
11459	CB	774	MPD2	C4	1	-0.15	12.011
11460	CB	774	MPD2	C5	1	-0.15	12.011
11461	HCMM	774	MPD2	H	1	0.15	1.0079
11462	HCMM	774	MPD2	H1	1	0.15	1.0079
11463	HCMM	774	MPD2	H2	1	0.15	1.0079
11464	HCMM	774	MPD2	H3	1	0.15	1.0079
11465	NC=O	774	MPD2	N	1	-0.547	14.0067
11466	HNCO	774	MPD2	H5	1	0.37	1.0079
11467	NC=O	774	MPD2	N1	1	-0.547	14.0067
11468	HNCO	774	MPD2	H7	1	0.37	1.0079
11469	CB	775	MPD2	C	1	-0.15	12.011
11470	CB	775	MPD2	C1	1	0.117	12.011
11471	CB	775	MPD2	C2	1	-0.15	12.011
11472	CB	775	MPD2	C3	1	0.117	12.011
11473	CB	775	MPD2	C4	1	-0.15	12.011
11474	CB	775	MPD2	C5	1	-0.15	12.011
11475	HCMM	775	MPD2	H	1	0.15	1.0079
11476	HCMM	775	MPD2	H1	1	0.15	1.0079
11477	HCMM	775	MPD2	H2	1	0.15	1.0079
11478	HCMM	775	MPD2	H3	1	0.15	1.0079
11479	NC=O	775	MPD2	N	1	-0.547	14.0067
11480	HNCO	775	MPD2	H5	1	0.37	1.0079
11481	NC=O	775	MPD2	N1	1	-0.547	14.0067
11482	HNCO	775	MPD2	H7	1	0.37	1.0079
11483	CB	776	MPD2	C	1	-0.15	12.011
11484	CB	776	MPD2	C1	1	0.117	12.011
11485	CB	776	MPD2	C2	1	-0.15	12.011
11486	CB	776	MPD2	C3	1	0.117	12.011
11487	CB	776	MPD2	C4	1	-0.15	12.011
11488	CB	776	MPD2	C5	1	-0.15	12.011
11489	HCMM	776	MPD2	H	1	0.15	1.0079
11490	HCMM	776	MPD2	H1	1	0.15	1.0079
11491	HCMM	776	MPD2	H2	1	0.15	1.0079
11492	HCMM	776	MPD2	H3	1	0.15	1.0079
11493	NC=O	776	MPD2	N	1	-0.547	14.0067
11494	HNCO	776	MPD2	H5	1	0.37	1.0079
11495	NC=O	776	MPD2	N1	1	-0.547	14.0067
11496	HNCO	776	MPD2	H7	1	0.37	1.0079
11497	CB	777	MPD2	C	1	-0.15	12.011
11498	CB	777	MPD2	C1	1	0.117	12.011
11499	CB	777	MPD2	C2	1	-0.15	12.011
11500	CB	777	MPD2	C3	1	0.117	12.011
11501	CB	777	MPD2	C4	1	-0.15	12.011
11502	CB	777	MPD2	C5	1	-0.15	12.011
11503	HCMM	777	MPD2	H	1	0.15	1.0079
11504	HCMM	777	MPD2	H1	1	0.15	1.0079
11505	HCMM	777	MPD2	H2	1	0.15	1.0079
11506	HCMM	777	MPD2	H3	1	0.15	1.0079
11507	NC=O	777	MPD2	N	1	-0.547	14.0067
11508	HNCO	777	MPD2	H5	1	0.37	1.0079
11509	NC=O	777	MPD2	N1	1	-0.547	14.0067
11510	HNCO	777	MPD2	H7	1	0.37	1.0079
11511	CB	778	MPD2	C	1	-0.15	12.011
11512	CB	778	MPD2	C1	1	0.117	12.011
11513	CB	778	MPD2	C2	1	-0.15	12.011
11514	CB	778	MPD2	C3	1	0.117	12.011
11515	CB	778	MPD2	C4	1	-0.15	12.011
11516	CB	778	MPD2	C5	1	-0.15	12.011
11517	HCMM	778	MPD2	H	1	0.15	1.0079
11518	HCMM	778	MPD2	H1	1	0.15	1.0079
11519	HCMM	778	MPD2	H2	1	0.15	1.0079
11520	HCMM	778	MPD2	H3	1	0.15	1.0079
11521	NC=O	778	MPD2	N	1	-0.547	14.0067
11522	HNCO	778	MPD2	H5	1	0.37	1.0079
11523	NC=O	778	MPD2	N1	1	-0.547	14.0067
11524	HNCO	778	MPD2	H7	1	0.37	1.0079
11525	CB	779	MPD2	C	1	-0.15	12.011
11526	CB	779	MPD2	C1	1	0.117	12.011
11527	CB	779	MPD2	C2	1	-0.15	12.011
11528	CB	779	MPD2	C3	1	0.117	12.011
11529	CB	779	MPD2	C4	1	-0.15	12.011
11530	CB	779	MPD2	C5	1	-0.15	12.011
11531	HCMM	779	MPD2	H	1	0.15	1.0079
11532	HCMM	779	MPD2	H1	1	0.15	1.0079
11533	HCMM	779	MPD2	H2	1	0.15	1.0079
11534	HCMM	779	MPD2	H3	1	0.15	1.0079
11535	NC=O	779	MPD2	N	1	-0.547	14.0067
11536	HNCO	779	MPD2	H5	1	0.37	1.0079
11537	NC=O	779	MPD2	N1	1	-0.547	14.0067
11538	HNCO	779	MPD2	H7	1	0.37	1.0079
11539	CB	780	MPD2	C	1	-0.15	12.011
11540	CB	780	MPD2	C1	1	0.117	12.011
11541	CB	780	MPD2	C2	1	-0.15	12.011
11542	CB	780	MPD2	C3	1	0.117	12.011
11543	CB	780	MPD2	C4	1	-0.15	12.011
11544	CB	780	MPD2	C5	1	-0.15	12.011
11545	HCMM	780	MPD2	H	1	0.15	1.0079
11546	HCMM	780	MPD2	H1	1	0.15	1.0079
11547	HCMM	780	MPD2	H2	1	0.15	1.0079
11548	HCMM	780	MPD2	H3	1	0.15	1.0079
11549	NC=O	780	MPD2	N	1	-0.547	14.0067
11550	HNCO	780	MPD2	H5	1	0.37	1.0079
11551	NC=O	780	MPD2	N1	1	-0.547	14.0067
11552	HNCO	780	MPD2	H7	1	0.37	1.0079
11553	CB	781	MPD2	C	1	-0.15	12.011
11554	CB	781	MPD2	C1	1	0.117	12.011
11555	CB	781	MPD2	C2	1	-0.15	12.011
11556	CB	781	MPD2	C3	1	0.117	12.011
11557	CB	781	MPD2	C4	1	-0.15	12.011
11558	CB	781	MPD2	C5	1	-0.15	12.011
11559	HCMM	781	MPD2	H	1	0.15	1.0079
11560	HCMM	781	MPD2	H1	1	0.15	1.0079
11561	HCMM	781	MPD2	H2	1	0.15	1.0079
11562	HCMM	781	MPD2	H3	1	0.15	1.0079
11563	NC=O	781	MPD2	N	1	-0.547	14.0067
11564	HNCO	781	MPD2	H5	1	0.37	1.0079
11565	NC=O	781	MPD2	N1	1	-0.547	14.0067
11566	HNCO	781	MPD2	H7	1	0.37	1.0079
11567	CB	782	MPD2	C	1	-0.15	12.011
11568	CB	782	MPD2	C1	1	0.117	12.011
11569	CB	782	MPD2	C2	1	-0.15	12.011
11570	CB	782	MPD2	C3	1	0.117	12.011
11571	CB	782	MPD2	C4	1	-0.15	12.011
11572	CB	782	MPD2	C5	1	-0.15	12.011
11573	HCMM	782	MPD2	H	1	0.15	1.0079
11574	HCMM	782	MPD2	H1	1	0.15	1.0079
11575	HCMM	782	MPD2	H2	1	0.15	1.0079
11576	HCMM	782	MPD2	H3	1	0.15	1.0079
11577	NC=O	782	MPD2	N	1	-0.547	14.0067
11578	HNCO	782	MPD2	H5	1	0.37	1.0079
11579	NC=O	782	MPD2	N1	1	-0.547	14.0067
11580	HNCO	782	MPD2	H7	1	0.37	1.0079
11581	CB	783	MPD2	C	1	-0.15	12.011
11582	CB	783	MPD2	C1	1	0.117	12.011
11583	CB	783	MPD2	C2	1	-0.15	12.011
11584	CB	783	MPD2	C3	1	0.117	12.011
11585	CB	783	MPD2	C4	1	-0.15	12.011
11586	CB	783	MPD2	C5	1	-0.15	12.011
11587	HCMM	783	MPD2	H	1	0.15	1.0079
11588	HCMM	783	MPD2	H1	1	0.15	1.0079
11589	HCMM	783	MPD2	H2	1	0.15	1.0079
11590	HCMM	783	MPD2	H3	1	0.15	1.0079
11591	NC=O	783	MPD2	N	1	-0.547	14.0067
11592	HNCO	783	MPD2	H5	1	0.37	1.0079
11593	NC=O	783	MPD2	N1	1	-0.547	14.0067
11594	HNCO	783	MPD2	H7	1	0.37	1.0079
11595	CB	784	MPD2	C	1	-0.15	12.011
11596	CB	784	MPD2	C1	1	0.117	12.011
11597	CB	784	MPD2	C2	1	-0.15	12.011
11598	CB	784	MPD2	C3	1	0.117	12.011
11599	CB	784	MPD2	C4	1	-0.15	12.011
11600	CB	784	MPD2	C5	1	-0.15	12.011
11601	HCMM	784	MPD2	H	1	0.15	1.0079
11602	HCMM	784	MPD2	H1	1	0.15	1.0079
11603	HCMM	784	MPD2	H2	1	0.15	1.0079
11604	HCMM	784	MPD2	H3	1	0.15	1.0079
11605	NC=O	784	MPD2	N	1	-0.547	14.0067
11606	HNCO	784	MPD2	H5	1	0.37	1.0079
11607	NC=O	784	MPD2	N1	1	-0.547	14.0067
11608	HNCO	784	MPD2	H7	1	0.37	1.0079
11609	CB	785	MPD2	C	1	-0.15	12.011
11610	CB	785	MPD2	C1	1	0.117	12.011
11611	CB	785	MPD2	C2	1	-0.15	12.011
11612	CB	785	MPD2	C3	1	0.117	12.011
11613	CB	785	MPD2	C4	1	-0.15	12.011
11614	CB	785	MPD2	C5	1	-0.15	12.011
11615	HCMM	785	MPD2	H	1	0.15	1.0079
11616	HCMM	785	MPD2	H1	1	0.15	1.0079
11617	HCMM	785	MPD2	H2	1	0.15	1.0079
11618	HCMM	785	MPD2	H3	1	0.15	1.0079
11619	NC=O	785	MPD2	N	1	-0.547	14.0067
11620	HNCO	785	MPD2	H5	1	0.37	1.0079
11621	NC=O	785	MPD2	N1	1	-0.547	14.0067
11622	HNCO	785	MPD2	H7	1	0.37	1.0079
11623	CB	786	MPD2	C	1	-0.15	12.011
11624	CB	786	MPD2	C1	1	0.117	12.011
11625	CB	786	MPD2	C2	1	-0.15	12.011
11626	CB	786	MPD2	C3	1	0.117	12.011
11627	CB	786	MPD2	C4	1	-0.15	12.011
11628	CB	786	MPD2	C5	1	-0.15	12.011
11629	HCMM	786	MPD2	H	1	0.15	1.0079
11630	HCMM	786	MPD2	H1	1	0.15	1.0079
11631	HCMM	786	MPD2	H2	1	0.15	1.0079
11632	HCMM	786	MPD2	H3	1	0.15	1.0079
11633	NC=O	786	MPD2	N	1	-0.547	14.0067
11634	HNCO	786	MPD2	H5	1	0.37	1.0079
11635	NC=O	786	MPD2	N1	1	-0.547	14.0067
11636	HNCO	786	MPD2	H7	1	0.37	1.0079
11637	CB	787	MPD2	C	1	-0.15	12.011
11638	CB	787	MPD2	C1	1	0.117	12.011
11639	CB	787	MPD2	C2	1	-0.15	12.011
11640	CB	787	MPD2	C3	1	0.117	12.011
11641	CB	787	MPD2	C4	1	-0.15	12.011
11642	CB	787	MPD2	C5	1	-0.15	12.011
11643	HCMM	787	MPD2	H	1	0.15	1.0079
11644	HCMM	787	MPD2	H1	1	0.15	1.0079
11645	HCMM	787	MPD2	H2	1	0.15	1.0079
11646	HCMM	787	MPD2	H3	1	0.15	1.0079
11647	NC=O	787	MPD2	N	1	-0.547	14.0067
11648	HNCO	787	MPD2	H5	1	0.37	1.0079
11649	NC=O	787	MPD2	N1	1	-0.547	14.0067
11650	HNCO	787	MPD2	H7	1	0.37	1.0079
11651	CB	788	MPD2	C	1	-0.15	12.011
11652	CB	788	MPD2	C1	1	0.117	12.011
11653	CB	788	MPD2	C2	1	-0.15	12.011
11654	CB	788	MPD2	C3	1	0.117	12.011
11655	CB	788	MPD2	C4	1	-0.15	12.011
11656	CB	788	MPD2	C5	1	-0.15	12.011
11657	HCMM	788	MPD2	H	1	0.15	1.0079
11658	HCMM	788	MPD2	H1	1	0.15	1.0079
11659	HCMM	788	MPD2	H2	1	0.15	1.0079
11660	HCMM	788	MPD2	H3	1	0.15	1.0079
11661	NC=O	788	MPD2	N	1	-0.547	14.0067
11662	HNCO	788	MPD2	H5	1	0.37	1.0079
11663	NC=O	788	MPD2	N1	1	-0.547	14.0067
11664	HNCO	788	MPD2	H7	1	0.37	1.0079
11665	CB	789	MPD2	C	1	-0.15	12.011
11666	CB	789	MPD2	C1	1	0.117	12.011
11667	CB	789	MPD2	C2	1	-0.15	12.011
11668	CB	789	MPD2	C3	1	0.117	12.011
11669	CB	789	MPD2	C4	1	-0.15	12.011
11670	CB	789	MPD2	C5	1	-0.15	12.011
11671	HCMM	789	MPD2	H	1	0.15	1.0079
11672	HCMM	789	MPD2	H1	1	0.15	1.0079
11673	HCMM	789	MPD2	H2	1	0.15	1.0079
11674	HCMM	789	MPD2	H3	1	0.15	1.0079
11675	NC=O	789	MPD2	N	1	-0.547	14.0067
11676	HNCO	789	MPD2	H5	1	0.37	1.0079
11677	NC=O	789	MPD2	N1	1	-0.547	14.0067
11678	HNCO	789	MPD2	H7	1	0.37	1.0079
11679	CB	790	MPD2	C	1	-0.15	12.011
11680	CB	790	MPD2	C1	1	0.117	12.011
11681	CB	790	MPD2	C2	1	-0.15	12.011
11682	CB	790	MPD2	C3	1	0.117	12.011
11683	CB	790	MPD2	C4	1	-0.15	12.011
11684	CB	790	MPD2	C5	1	-0.15	12.011
11685	HCMM	790	MPD2	H	1	0.15	1.0079
11686	HCMM	790	MPD2	H1	1	0.15	1.0079
11687	HCMM	790	MPD2	H2	1	0.15	1.0079
11688	HCMM	790	MPD2	H3	1	0.15	1.0079
11689	NC=O	790	MPD2	N	1	-0.547	14.0067
11690	HNCO	790	MPD2	H5	1	0.37	1.0079
11691	NC=O	790	MPD2	N1	1	-0.547	14.0067
11692	HNCO	790	MPD2	H7	1	0.37	1.0079
11693	CB	791	MPD2	C	1	-0.15	12.011
11694	CB	791	MPD2	C1	1	0.117	12.011
11695	CB	791	MPD2	C2	1	-0.15	12.011
11696	CB	791	MPD2	C3	1	0.117	12.011
11697	CB	791	MPD2	C4	1	-0.15	12.011
11698	CB	791	MPD2	C5	1	-0.15	12.011
11699	HCMM	791	MPD2	H	1	0.15	1.0079
11700	HCMM	791	MPD2	H1	1	0.15	1.0079
11701	HCMM	791	MPD2	H2	1	0.15	1.0079
11702	HCMM	791	MPD2	H3	1	0.15	1.0079
11703	NC=O	791	MPD2	N	1	-0.547	14.0067
11704	HNCO	791	MPD2	H5	1	0.37	1.0079
11705	NC=O	791	MPD2	N1	1	-0.547	14.0067
11706	HNCO	791	MPD2	H7	1	0.37	1.0079
11707	CB	792	MPD2	C	1	-0.15	12.011
11708	CB	792	MPD2	C1	1	0.117	12.011
11709	CB	792	MPD2	C2	1	-0.15	12.011
11710	CB	792	MPD2	C3	1	0.117	12.011
11711	CB	792	MPD2	C4	1	-0.15	12.011
11712	CB	792	MPD2	C5	1	-0.15	12.011
11713	HCMM	792	MPD2	H	1	0.15	1.0079
11714	HCMM	792	MPD2	H1	1	0.15	1.0079
11715	HCMM	792	MPD2	H2	1	0.15	1.0079
11716	HCMM	792	MPD2	H3	1	0.15	1.0079
11717	NC=O	792	MPD2	N	1	-0.547	14.0067
11718	HNCO	792	MPD2	H5	1	0.37	1.0079
11719	NC=O	792	MPD2	N1	1	-0.547	14.0067
11720	HNCO	792	MPD2	H7	1	0.37	1.0079
11721	CB	793	MPD2	C	1	-0.15	12.011
11722	CB	793	MPD2	C1	1	0.117	12.011
11723	CB	793	MPD2	C2	1	-0.15	12.011
11724	CB	793	MPD2	C3	1	0.117	12.011
11725	CB	793	MPD2	C4	1	-0.15	12.011
11726	CB	793	MPD2	C5	1	-0.15	12.011
11727	HCMM	793	MPD2	H	1	0.15	1.0079
11728	HCMM	793	MPD2	H1	1	0.15	1.0079
11729	HCMM	793	MPD2	H2	1	0.15	1.0079
11730	HCMM	793	MPD2	H3	1	0.15	1.0079
11731	NC=O	793	MPD2	N	1	-0.547	14.0067
11732	HNCO	793	MPD2	H5	1	0.37	1.0079
11733	NC=O	793	MPD2	N1	1	-0.547	14.0067
11734	HNCO	793	MPD2	H7	1	0.37	1.0079
11735	CB	794	MPD2	C	1	-0.15	12.011
11736	CB	794	MPD2	C1	1	0.117	12.011
11737	CB	794	MPD2	C2	1	-0.15	12.011
11738	CB	794	MPD2	C3	1	0.117	12.011
11739	CB	794	MPD2	C4	1	-0.15	12.011
11740	CB	794	MPD2	C5	1	-0.15	12.011
11741	HCMM	794	MPD2	H	1	0.15	1.0079
11742	HCMM	794	MPD2	H1	1	0.15	1.0079
11743	HCMM	794	MPD2	H2	1	0.15	1.0079
11744	HCMM	794	MPD2	H3	1	0.15	1.0079
11745	NC=O	794	MPD2	N	1	-0.547	14.0067
11746	HNCO	794	MPD2	H5	1	0.37	1.0079
11747	NC=O	794	MPD2	N1	1	-0.547	14.0067
11748	HNCO	794	MPD2	H7	1	0.37	1.0079
11749	CB	795	MPD2	C	1	-0.15	12.011
11750	CB	795	MPD2	C1	1	0.117	12.011
11751	CB	795	MPD2	C2	1	-0.15	12.011
11752	CB	795	MPD2	C3	1	0.117	12.011
11753	CB	795	MPD2	C4	1	-0.15	12.011
11754	CB	795	MPD2	C5	1	-0.15	12.011
11755	HCMM	795	MPD2	H	1	0.15	1.0079
11756	HCMM	795	MPD2	H1	1	0.15	1.0079
11757	HCMM	795	MPD2	H2	1	0.15	1.0079
11758	HCMM	795	MPD2	H3	1	0.15	1.0079
11759	NC=O	795	MPD2	N	1	-0.547	14.0067
11760	HNCO	795	MPD2	H5	1	0.37	1.0079
11761	NC=O	795	MPD2	N1	1	-0.547	14.0067
11762	HNCO	795	MPD2	H7	1	0.37	1.0079
11763	CB	796	MPD2	C	1	-0.15	12.011
11764	CB	796	MPD2	C1	1	0.117	12.011
11765	CB	796	MPD2	C2	1	-0.15	12.011
11766	CB	796	MPD2	C3	1	0.117	12.011
11767	CB	796	MPD2	C4	1	-0.15	12.011
11768	CB	796	MPD2	C5	1	-0.15	12.011
11769	HCMM	796	MPD2	H	1	0.15	1.0079
11770	HCMM	796	MPD2	H1	1	0.15	1.0079
11771	HCMM	796	MPD2	H2	1	0.15	1.0079
11772	HCMM	796	MPD2	H3	1	0.15	1.0079
11773	NC=O	796	MPD2	N	1	-0.547	14.0067
11774	HNCO	796	MPD2	H5	1	0.37	1.0079
11775	NC=O	796	MPD2	N1	1	-0.547	14.0067
11776	HNCO	796	MPD2	H7	1	0.37	1.0079
11777	CB	797	MPD2	C	1	-0.15	12.011
11778	CB	797	MPD2	C1	1	0.117	12.011
11779	CB	797	MPD2	C2	1	-0.15	12.011
11780	CB	797	MPD2	C3	1	0.117	12.011
11781	CB	797	MPD2	C4	1	-0.15	12.011
11782	CB	797	MPD2	C5	1	-0.15	12.011
11783	HCMM	797	MPD2	H	1	0.15	1.0079
11784	HCMM	797	MPD2	H1	1	0.15	1.0079
11785	HCMM	797	MPD2	H2	1	0.15	1.0079
11786	HCMM	797	MPD2	H3	1	0.15	1.0079
11787	NC=O	797	MPD2	N	1	-0.547	14.0067
11788	HNCO	797	MPD2	H5	1	0.37	1.0079
11789	NC=O	797	MPD2	N1	1	-0.547	14.0067
11790	HNCO	797	MPD2	H7	1	0.37	1.0079
11791	CB	798	MPD2	C	1	-0.15	12.011
11792	CB	798	MPD2	C1	1	0.117	12.011
11793	CB	798	MPD2	C2	1	-0.15	12.011
11794	CB	798	MPD2	C3	1	0.117	12.011
11795	CB	798	MPD2	C4	1	-0.15	12.011
11796	CB	798	MPD2	C5	1	-0.15	12.011
11797	HCMM	798	MPD2	H	1	0.15	1.0079
11798	HCMM	798	MPD2	H1	1	0.15	1.0079
11799	HCMM	798	MPD2	H2	1	0.15	1.0079
11800	HCMM	798	MPD2	H3	1	0.15	1.0079
11801	NC=O	798	MPD2	N	1	-0.547	14.0067
11802	HNCO	798	MPD2	H5	1	0.37	1.0079
11803	NC=O	798	MPD2	N1	1	-0.547	14.0067
11804	HNCO	798	MPD2	H7	1	0.37	1.0079
11805	CB	799	MPD2	C	1	-0.15	12.011
11806	CB	799	MPD2	C1	1	0.117	12.011
11807	CB	799	MPD2	C2	1	-0.15	12.011
11808	CB	799	MPD2	C3	1	0.117	12.011
11809	CB	799	MPD2	C4	1	-0.15	12.011
11810	CB	799	MPD2	C5	1	-0.15	12.011
11811	HCMM	799	MPD2	H	1	0.15	1.0079
11812	HCMM	799	MPD2	H1	1	0.15	1.0079
11813	HCMM	799	MPD2	H2	1	0.15	1.0079
11814	HCMM	799	MPD2	H3	1	0.15	1.0079
11815	NC=O	799	MPD2	N	1	-0.547	14.0067
11816	HNCO	799	MPD2	H5	1	0.37	1.0079
11817	NC=O	799	MPD2	N1	1	-0.547	14.0067
11818	HNCO	799	MPD2	H7	1	0.37	1.0079
11819	CB	800	MPD2	C	1	-0.15	12.011
11820	CB	800	MPD2	C1	1	0.117	12.011
11821	CB	800	MPD2	C2	1	-0.15	12.011
11822	CB	800	MPD2	C3	1	0.117	12.011
11823	CB	800	MPD2	C4	1	-0.15	12.011
11824	CB	800	MPD2	C5	1	-0.15	12.011
11825	HCMM	800	MPD2	H	1	0.15	1.0079
11826	HCMM	800	MPD2	H1	1	0.15	1.0079
11827	HCMM	800	MPD2	H2	1	0.15	1.0079
11828	HCMM	800	MPD2	H3	1	0.15	1.0079
11829	NC=O	800	MPD2	N	1	-0.547	14.0067
11830	HNCO	800	MPD2	H5	1	0.37	1.0079
11831	NC=O	800	MPD2	N1	1	-0.547	14.0067
11832	HNCO	800	MPD2	H7	1	0.37	1.0079
11833	CB	801	MPD2	C	1	-0.15	12.011
11834	CB	801	MPD2	C1	1	0.117	12.011
11835	CB	801	MPD2	C2	1	-0.15	12.011
11836	CB	801	MPD2	C3	1	0.117	12.011
11837	CB	801	MPD2	C4	1	-0.15	12.011
11838	CB	801	MPD2	C5	1	-0.15	12.011
11839	HCMM	801	MPD2	H	1	0.15	1.0079
11840	HCMM	801	MPD2	H1	1	0.15	1.0079
11841	HCMM	801	MPD2	H2	1	0.15	1.0079
11842	HCMM	801	MPD2	H3	1	0.15	1.0079
11843	NC=O	801	MPD2	N	1	-0.547	14.0067
11844	HNCO	801	MPD2	H5	1	0.37	1.0079
11845	NC=O	801	MPD2	N1	1	-0.547	14.0067
11846	HNCO	801	MPD2	H7	1	0.37	1.0079
11847	CB	802	MPD2	C	1	-0.15	12.011
11848	CB	802	MPD2	C1	1	0.117	12.011
11849	CB	802	MPD2	C2	1	-0.15	12.011
11850	CB	802	MPD2	C3	1	0.117	12.011
11851	CB	802	MPD2	C4	1	-0.15	12.011
11852	CB	802	MPD2	C5	1	-0.15	12.011
11853	HCMM	802	MPD2	H	1	0.15	1.0079
11854	HCMM	802	MPD2	H1	1	0.15	1.0079
11855	HCMM	802	MPD2	H2	1	0.15	1.0079
11856	HCMM	802	MPD2	H3	1	0.15	1.0079
11857	NC=O	802	MPD2	N	1	-0.547	14.0067
11858	HNCO	802	MPD2	H5	1	0.37	1.0079
11859	NC=O	802	MPD2	N1	1	-0.547	14.0067
11860	HNCO	802	MPD2	H7	1	0.37	1.0079
11861	CB	803	MPD2	C	1	-0.15	12.011
11862	CB	803	MPD2	C1	1	0.117	12.011
11863	CB	803	MPD2	C2	1	-0.15	12.011
11864	CB	803	MPD2	C3	1	0.117	12.011
11865	CB	803	MPD2	C4	1	-0.15	12.011
11866	CB	803	MPD2	C5	1	-0.15	12.011
11867	HCMM	803	MPD2	H	1	0.15	1.0079
11868	HCMM	803	MPD2	H1	1	0.15	1.0079
11869	HCMM	803	MPD2	H2	1	0.15	1.0079
11870	HCMM	803	MPD2	H3	1	0.15	1.0079
11871	NC=O	803	MPD2	N	1	-0.547	14.0067
11872	HNCO	803	MPD2	H5	1	0.37	1.0079
11873	NC=O	803	MPD2	N1	1	-0.547	14.0067
11874	HNCO	803	MPD2	H7	1	0.37	1.0079
11875	CB	804	MPD2	C	1	-0.15	12.011
11876	CB	804	MPD2	C1	1	0.117	12.011
11877	CB	804	MPD2	C2	1	-0.15	12.011
11878	CB	804	MPD2	C3	1	0.117	12.011
11879	CB	804	MPD2	C4	1	-0.15	12.011
11880	CB	804	MPD2	C5	1	-0.15	12.011
11881	HCMM	804	MPD2	H	1	0.15	1.0079
11882	HCMM	804	MPD2	H1	1	0.15	1.0079
11883	HCMM	804	MPD2	H2	1	0.15	1.0079
11884	HCMM	804	MPD2	H3	1	0.15	1.0079
11885	NC=O	804	MPD2	N	1	-0.547	14.0067
11886	HNCO	804	MPD2	H5	1	0.37	1.0079
11887	NC=O	804	MPD2	N1	1	-0.547	14.0067
11888	HNCO	804	MPD2	H7	1	0.37	1.0079
11889	CB	805	MPD2	C	1	-0.15	12.011
11890	CB	805	MPD2	C1	1	0.117	12.011
11891	CB	805	MPD2	C2	1	-0.15	12.011
11892	CB	805	MPD2	C3	1	0.117	12.011
11893	CB	805	MPD2	C4	1	-0.15	12.011
11894	CB	805	MPD2	C5	1	-0.15	12.011
11895	HCMM	805	MPD2	H	1	0.15	1.0079
11896	HCMM	805	MPD2	H1	1	0.15	1.0079
11897	HCMM	805	MPD2	H2	1	0.15	1.0079
11898	HCMM	805	MPD2	H3	1	0.15	1.0079
11899	NC=O	805	MPD2	N	1	-0.547	14.0067
11900	HNCO	805	MPD2	H5	1	0.37	1.0079
11901	NC=O	805	MPD2	N1	1	-0.547	14.0067
11902	HNCO	805	MPD2	H7	1	0.37	1.0079
11903	CB	806	MPD2	C	1	-0.15	12.011
11904	CB	806	MPD2	C1	1	0.117	12.011
11905	CB	806	MPD2	C2	1	-0.15	12.011
11906	CB	806	MPD2	C3	1	0.117	12.011
11907	CB	806	MPD2	C4	1	-0.15	12.011
11908	CB	806	MPD2	C5	1	-0.15	12.011
11909	HCMM	806	MPD2	H	1	0.15	1.0079
11910	HCMM	806	MPD2	H1	1	0.15	1.0079
11911	HCMM	806	MPD2	H2	1	0.15	1.0079
11912	HCMM	806	MPD2	H3	1	0.15	1.0079
11913	NC=O	806	MPD2	N	1	-0.547	14.0067
11914	HNCO	806	MPD2	H5	1	0.37	1.0079
11915	NC=O	806	MPD2	N1	1	-0.547	14.0067
11916	HNCO	806	MPD2	H7	1	0.37	1.0079
11917	CB	807	MPD2	C	1	-0.15	12.011
11918	CB	807	MPD2	C1	1	0.117	12.011
11919	CB	807	MPD2	C2	1	-0.15	12.011
11920	CB	807	MPD2	C3	1	0.117	12.011
11921	CB	807	MPD2	C4	1	-0.15	12.011
11922	CB	807	MPD2	C5	1	-0.15	12.011
11923	HCMM	807	MPD2	H	1	0.15	1.0079
11924	HCMM	807	MPD2	H1	1	0.15	1.0079
11925	HCMM	807	MPD2	H2	1	0.15	1.0079
11926	HCMM	807	MPD2	H3	1	0.15	1.0079
11927	NC=O	807	MPD2	N	1	-0.547	14.0067
11928	HNCO	807	MPD2	H5	1	0.37	1.0079
11929	NC=O	807	MPD2	N1	1	-0.547	14.0067
11930	HNCO	807	MPD2	H7	1	0.37	1.0079
11931	CB	808	MPD2	C	1	-0.15	12.011
11932	CB	808	MPD2	C1	1	0.117	12.011
11933	CB	808	MPD2	C2	1	-0.15	12.011
11934	CB	808	MPD2	C3	1	0.117	12.011
11935	CB	808	MPD2	C4	1	-0.15	12.011
11936	CB	808	MPD2	C5	1	-0.15	12.011
11937	HCMM	808	MPD2	H	1	0.15	1.0079
11938	HCMM	808	MPD2	H1	1	0.15	1.0079
11939	HCMM	808	MPD2	H2	1	0.15	1.0079
11940	HCMM	808	MPD2	H3	1	0.15	1.0079
11941	NC=O	808	MPD2	N	1	-0.547	14.0067
11942	HNCO	808	MPD2	H5	1	0.37	1.0079
11943	NC=O	808	MPD2	N1	1	-0.547	14.0067
11944	HNCO	808	MPD2	H7	1	0.37	1.0079
11945	CB	809	MPD2	C	1	-0.15	12.011
11946	CB	809	MPD2	C1	1	0.117	12.011
11947	CB	809	MPD2	C2	1	-0.15	12.011
11948	CB	809	MPD2	C3	1	0.117	12.011
11949	CB	809	MPD2	C4	1	-0.15	12.011
11950	CB	809	MPD2	C5	1	-0.15	12.011
11951	HCMM	809	MPD2	H	1	0.15	1.0079
11952	HCMM	809	MPD2	H1	1	0.15	1.0079
11953	HCMM	809	MPD2	H2	1	0.15	1.0079
11954	HCMM	809	MPD2	H3	1	0.15	1.0079
11955	NC=O	809	MPD2	N	1	-0.547	14.0067
11956	HNCO	809	MPD2	H5	1	0.37	1.0079
11957	NC=O	809	MPD2	N1	1	-0.547	14.0067
11958	HNCO	809	MPD2	H7	1	0.37	1.0079
11959	CB	810	MPD2	C	1	-0.15	12.011
11960	CB	810	MPD2	C1	1	0.117	12.011
11961	CB	810	MPD2	C2	1	-0.15	12.011
11962	CB	810	MPD2	C3	1	0.117	12.011
11963	CB	810	MPD2	C4	1	-0.15	12.011
11964	CB	810	MPD2	C5	1	-0.15	12.011
11965	HCMM	810	MPD2	H	1	0.15	1.0079
11966	HCMM	810	MPD2	H1	1	0.15	1.0079
11967	HCMM	810	MPD2	H2	1	0.15	1.0079
11968	HCMM	810	MPD2	H3	1	0.15	1.0079
11969	NC=O	810	MPD2	N	1	-0.547	14.0067
11970	HNCO	810	MPD2	H5	1	0.37	1.0079
11971	NC=O	810	MPD2	N1	1	-0.547	14.0067
11972	HNCO	810	MPD2	H7	1	0.37	1.0079
11973	CB	811	MPD2	C	1	-0.15	12.011
11974	CB	811	MPD2	C1	1	0.117	12.011
11975	CB	811	MPD2	C2	1	-0.15	12.011
11976	CB	811	MPD2	C3	1	0.117	12.011
11977	CB	811	MPD2	C4	1	-0.15	12.011
11978	CB	811	MPD2	C5	1	-0.15	12.011
11979	HCMM	811	MPD2	H	1	0.15	1.0079
11980	HCMM	811	MPD2	H1	1	0.15	1.0079
11981	HCMM	811	MPD2	H2	1	0.15	1.0079
11982	HCMM	811	MPD2	H3	1	0.15	1.0079
11983	NC=O	811	MPD2	N	1	-0.547	14.0067
11984	HNCO	811	MPD2	H5	1	0.37	1.0079
11985	NC=O	811	MPD2	N1	1	-0.547	14.0067
11986	HNCO	811	MPD2	H7	1	0.37	1.0079
11987	CB	812	MPD2	C	1	-0.15	12.011
11988	CB	812	MPD2	C1	1	0.117	12.011
11989	CB	812	MPD2	C2	1	-0.15	12.011
11990	CB	812	MPD2	C3	1	0.117	12.011
11991	CB	812	MPD2	C4	1	-0.15	12.011
11992	CB	812	MPD2	C5	1	-0.15	12.011
11993	HCMM	812	MPD2	H	1	0.15	1.0079
11994	HCMM	812	MPD2	H1	1	0.15	1.0079
11995	HCMM	812	MPD2	H2	1	0.15	1.0079
11996	HCMM	812	MPD2	H3	1	0.15	1.0079
11997	NC=O	812	MPD2	N	1	-0.547	14.0067
11998	HNCO	812	MPD2	H5	1	0.37	1.0079
11999	NC=O	812	MPD2	N1	1	-0.547	14.0067
12000	HNCO	812	MPD2	H7	1	0.37	1.0079
12001	CB	813	MPD2	C	1	-0.15	12.011
12002	CB	813	MPD2	C1	1	0.117	12.011
12003	CB	813	MPD2	C2	1	-0.15	12.011
12004	CB	813	MPD2	C3	1	0.117	12.011
12005	CB	813	MPD2	C4	1	-0.15	12.011
12006	CB	813	MPD2	C5	1	-0.15	12.011
12007	HCMM	813	MPD2	H	1	0.15	1.0079
12008	HCMM	813	MPD2	H1	1	0.15	1.0079
12009	HCMM	813	MPD2	H2	1	0.15	1.0079
12010	HCMM	813	MPD2	H3	1	0.15	1.0079
12011	NC=O	813	MPD2	N	1	-0.547	14.0067
12012	HNCO	813	MPD2	H5	1	0.37	1.0079
12013	NC=O	813	MPD2	N1	1	-0.547	14.0067
12014	HNCO	813	MPD2	H7	1	0.37	1.0079
12015	CB	814	MPD2	C	1	-0.15	12.011
12016	CB	814	MPD2	C1	1	0.117	12.011
12017	CB	814	MPD2	C2	1	-0.15	12.011
12018	CB	814	MPD2	C3	1	0.117	12.011
12019	CB	814	MPD2	C4	1	-0.15	12.011
12020	CB	814	MPD2	C5	1	-0.15	12.011
12021	HCMM	814	MPD2	H	1	0.15	1.0079
12022	HCMM	814	MPD2	H1	1	0.15	1.0079
12023	HCMM	814	MPD2	H2	1	0.15	1.0079
12024	HCMM	814	MPD2	H3	1	0.15	1.0079
12025	NC=O	814	MPD2	N	1	-0.547	14.0067
12026	HNCO	814	MPD2	H5	1	0.37	1.0079
12027	NC=O	814	MPD2	N1	1	-0.547	14.0067
12028	HNCO	814	MPD2	H7	1	0.37	1.0079
12029	CB	815	MPD2	C	1	-0.15	12.011
12030	CB	815	MPD2	C1	1	0.117	12.011
12031	CB	815	MPD2	C2	1	-0.15	12.011
12032	CB	815	MPD2	C3	1	0.117	12.011
12033	CB	815	MPD2	C4	1	-0.15	12.011
12034	CB	815	MPD2	C5	1	-0.15	12.011
12035	HCMM	815	MPD2	H	1	0.15	1.0079
12036	HCMM	815	MPD2	H1	1	0.15	1.0079
12037	HCMM	815	MPD2	H2	1	0.15	1.0079
12038	HCMM	815	MPD2	H3	1	0.15	1.0079
12039	NC=O	815	MPD2	N	1	-0.547	14.0067
12040	HNCO	815	MPD2	H5	1	0.37	1.0079
12041	NC=O	815	MPD2	N1	1	-0.547	14.0067
12042	HNCO	815	MPD2	H7	1	0.37	1.0079
12043	CB	816	MPD2	C	1	-0.15	12.011
12044	CB	816	MPD2	C1	1	0.117	12.011
12045	CB	816	MPD2	C2	1	-0.15	12.011
12046	CB	816	MPD2	C3	1	0.117	12.011
12047	CB	816	MPD2	C4	1	-0.15	12.011
12048	CB	816	MPD2	C5	1	-0.15	12.011
12049	HCMM	816	MPD2	H	1	0.15	1.0079
12050	HCMM	816	MPD2	H1	1	0.15	1.0079
12051	HCMM	816	MPD2	H2	1	0.15	1.0079
12052	HCMM	816	MPD2	H3	1	0.15	1.0079
12053	NC=O	816	MPD2	N	1	-0.547	14.0067
12054	HNCO	816	MPD2	H5	1	0.37	1.0079
12055	NC=O	816	MPD2	N1	1	-0.547	14.0067
12056	HNCO	816	MPD2	H7	1	0.37	1.0079
12057	CB	817	MPD2	C	1	-0.15	12.011
12058	CB	817	MPD2	C1	1	0.117	12.011
12059	CB	817	MPD2	C2	1	-0.15	12.011
12060	CB	817	MPD2	C3	1	0.117	12.011
12061	CB	817	MPD2	C4	1	-0.15	12.011
12062	CB	817	MPD2	C5	1	-0.15	12.011
12063	HCMM	817	MPD2	H	1	0.15	1.0079
12064	HCMM	817	MPD2	H1	1	0.15	1.0079
12065	HCMM	817	MPD2	H2	1	0.15	1.0079
12066	HCMM	817	MPD2	H3	1	0.15	1.0079
12067	NC=O	817	MPD2	N	1	-0.547	14.0067
12068	HNCO	817	MPD2	H5	1	0.37	1.0079
12069	NC=O	817	MPD2	N1	1	-0.547	14.0067
12070	HNCO	817	MPD2	H7	1	0.37	1.0079
12071	CB	818	MPD2	C	1	-0.15	12.011
12072	CB	818	MPD2	C1	1	0.117	12.011
12073	CB	818	MPD2	C2	1	-0.15	12.011
12074	CB	818	MPD2	C3	1	0.117	12.011
12075	CB	818	MPD2	C4	1	-0.15	12.011
12076	CB	818	MPD2	C5	1	-0.15	12.011
12077	HCMM	818	MPD2	H	1	0.15	1.0079
12078	HCMM	818	MPD2	H1	1	0.15	1.0079
12079	HCMM	818	MPD2	H2	1	0.15	1.0079
12080	HCMM	818	MPD2	H3	1	0.15	1.0079
12081	NC=O	818	MPD2	N	1	-0.547	14.0067
12082	HNCO	818	MPD2	H5	1	0.37	1.0079
12083	NC=O	818	MPD2	N1	1	-0.547	14.0067
12084	HNCO	818	MPD2	H7	1	0.37	1.0079
12085	CB	819	MPD2	C	1	-0.15	12.011
12086	CB	819	MPD2	C1	1	0.117	12.011
12087	CB	819	MPD2	C2	1	-0.15	12.011
12088	CB	819	MPD2	C3	1	0.117	12.011
12089	CB	819	MPD2	C4	1	-0.15	12.011
12090	CB	819	MPD2	C5	1	-0.15	12.011
12091	HCMM	819	MPD2	H	1	0.15	1.0079
12092	HCMM	819	MPD2	H1	1	0.15	1.0079
12093	HCMM	819	MPD2	H2	1	0.15	1.0079
12094	HCMM	819	MPD2	H3	1	0.15	1.0079
12095	NC=O	819	MPD2	N	1	-0.547	14.0067
12096	HNCO	819	MPD2	H5	1	0.37	1.0079
12097	NC=O	819	MPD2	N1	1	-0.547	14.0067
12098	HNCO	819	MPD2	H7	1	0.37	1.0079
12099	CB	820	MPD2	C	1	-0.15	12.011
12100	CB	820	MPD2	C1	1	0.117	12.011
12101	CB	820	MPD2	C2	1	-0.15	12.011
12102	CB	820	MPD2	C3	1	0.117	12.011
12103	CB	820	MPD2	C4	1	-0.15	12.011
12104	CB	820	MPD2	C5	1	-0.15	12.011
12105	HCMM	820	MPD2	H	1	0.15	1.0079
12106	HCMM	820	MPD2	H1	1	0.15	1.0079
12107	HCMM	820	MPD2	H2	1	0.15	1.0079
12108	HCMM	820	MPD2	H3	1	0.15	1.0079
12109	NC=O	820	MPD2	N	1	-0.547	14.0067
12110	HNCO	820	MPD2	H5	1	0.37	1.0079
12111	NC=O	820	MPD2	N1	1	-0.547	14.0067
12112	HNCO	820	MPD2	H7	1	0.37	1.0079
12113	CB	821	MPD2	C	1	-0.15	12.011
12114	CB	821	MPD2	C1	1	0.117	12.011
12115	CB	821	MPD2	C2	1	-0.15	12.011
12116	CB	821	MPD2	C3	1	0.117	12.011
12117	CB	821	MPD2	C4	1	-0.15	12.011
12118	CB	821	MPD2	C5	1	-0.15	12.011
12119	HCMM	821	MPD2	H	1	0.15	1.0079
12120	HCMM	821	MPD2	H1	1	0.15	1.0079
12121	HCMM	821	MPD2	H2	1	0.15	1.0079
12122	HCMM	821	MPD2	H3	1	0.15	1.0079
12123	NC=O	821	MPD2	N	1	-0.547	14.0067
12124	HNCO	821	MPD2	H5	1	0.37	1.0079
12125	NC=O	821	MPD2	N1	1	-0.547	14.0067
12126	HNCO	821	MPD2	H7	1	0.37	1.0079
12127	CB	822	MPD2	C	1	-0.15	12.011
12128	CB	822	MPD2	C1	1	0.117	12.011
12129	CB	822	MPD2	C2	1	-0.15	12.011
12130	CB	822	MPD2	C3	1	0.117	12.011
12131	CB	822	MPD2	C4	1	-0.15	12.011
12132	CB	822	MPD2	C5	1	-0.15	12.011
12133	HCMM	822	MPD2	H	1	0.15	1.0079
12134	HCMM	822	MPD2	H1	1	0.15	1.0079
12135	HCMM	822	MPD2	H2	1	0.15	1.0079
12136	HCMM	822	MPD2	H3	1	0.15	1.0079
12137	NC=O	822	MPD2	N	1	-0.547	14.0067
12138	HNCO	822	MPD2	H5	1	0.37	1.0079
12139	NC=O	822	MPD2	N1	1	-0.547	14.0067
12140	HNCO	822	MPD2	H7	1	0.37	1.0079
12141	CB	823	MPD2	C	1	-0.15	12.011
12142	CB	823	MPD2	C1	1	0.117	12.011
12143	CB	823	MPD2	C2	1	-0.15	12.011
12144	CB	823	MPD2	C3	1	0.117	12.011
12145	CB	823	MPD2	C4	1	-0.15	12.011
12146	CB	823	MPD2	C5	1	-0.15	12.011
12147	HCMM	823	MPD2	H	1	0.15	1.0079
12148	HCMM	823	MPD2	H1	1	0.15	1.0079
12149	HCMM	823	MPD2	H2	1	0.15	1.0079
12150	HCMM	823	MPD2	H3	1	0.15	1.0079
12151	NC=O	823	MPD2	N	1	-0.547	14.0067
12152	HNCO	823	MPD2	H5	1	0.37	1.0079
12153	NC=O	823	MPD2	N1	1	-0.547	14.0067
12154	HNCO	823	MPD2	H7	1	0.37	1.0079
12155	CB	824	MPD2	C	1	-0.15	12.011
12156	CB	824	MPD2	C1	1	0.117	12.011
12157	CB	824	MPD2	C2	1	-0.15	12.011
12158	CB	824	MPD2	C3	1	0.117	12.011
12159	CB	824	MPD2	C4	1	-0.15	12.011
12160	CB	824	MPD2	C5	1	-0.15	12.011
12161	HCMM	824	MPD2	H	1	0.15	1.0079
12162	HCMM	824	MPD2	H1	1	0.15	1.0079
12163	HCMM	824	MPD2	H2	1	0.15	1.0079
12164	HCMM	824	MPD2	H3	1	0.15	1.0079
12165	NC=O	824	MPD2	N	1	-0.547	14.0067
12166	HNCO	824	MPD2	H5	1	0.37	1.0079
12167	NC=O	824	MPD2	N1	1	-0.547	14.0067
12168	HNCO	824	MPD2	H7	1	0.37	1.0079
12169	CB	825	MPD2	C	1	-0.15	12.011
12170	CB	825	MPD2	C1	1	0.117	12.011
12171	CB	825	MPD2	C2	1	-0.15	12.011
12172	CB	825	MPD2	C3	1	0.117	12.011
12173	CB	825	MPD2	C4	1	-0.15	12.011
12174	CB	825	MPD2	C5	1	-0.15	12.011
12175	HCMM	825	MPD2	H	1	0.15	1.0079
12176	HCMM	825	MPD2	H1	1	0.15	1.0079
12177	HCMM	825	MPD2	H2	1	0.15	1.0079
12178	HCMM	825	MPD2	H3	1	0.15	1.0079
12179	NC=O	825	MPD2	N	1	-0.547	14.0067
12180	HNCO	825	MPD2	H5	1	0.37	1.0079
12181	NC=O	825	MPD2	N1	1	-0.547	14.0067
12182	HNCO	825	MPD2	H7	1	0.37	1.0079
12183	CB	826	MPD2	C	1	-0.15	12.011
12184	CB	826	MPD2	C1	1	0.117	12.011
12185	CB	826	MPD2	C2	1	-0.15	12.011
12186	CB	826	MPD2	C3	1	0.117	12.011
12187	CB	826	MPD2	C4	1	-0.15	12.011
12188	CB	826	MPD2	C5	1	-0.15	12.011
12189	HCMM	826	MPD2	H	1	0.15	1.0079
12190	HCMM	826	MPD2	H1	1	0.15	1.0079
12191	HCMM	826	MPD2	H2	1	0.15	1.0079
12192	HCMM	826	MPD2	H3	1	0.15	1.0079
12193	NC=O	826	MPD2	N	1	-0.547	14.0067
12194	HNCO	826	MPD2	H5	1	0.37	1.0079
12195	NC=O	826	MPD2	N1	1	-0.547	14.0067
12196	HNCO	826	MPD2	H7	1	0.37	1.0079
12197	CB	827	MPD2	C	1	-0.15	12.011
12198	CB	827	MPD2	C1	1	0.117	12.011
12199	CB	827	MPD2	C2	1	-0.15	12.011
12200	CB	827	MPD2	C3	1	0.117	12.011
12201	CB	827	MPD2	C4	1	-0.15	12.011
12202	CB	827	MPD2	C5	1	-0.15	12.011
12203	HCMM	827	MPD2	H	1	0.15	1.0079
12204	HCMM	827	MPD2	H1	1	0.15	1.0079
12205	HCMM	827	MPD2	H2	1	0.15	1.0079
12206	HCMM	827	MPD2	H3	1	0.15	1.0079
12207	NC=O	827	MPD2	N	1	-0.547	14.0067
12208	HNCO	827	MPD2	H5	1	0.37	1.0079
12209	NC=O	827	MPD2	N1	1	-0.547	14.0067
12210	HNCO	827	MPD2	H7	1	0.37	1.0079
12211	CB	828	MPD2	C	1	-0.15	12.011
12212	CB	828	MPD2	C1	1	0.117	12.011
12213	CB	828	MPD2	C2	1	-0.15	12.011
12214	CB	828	MPD2	C3	1	0.117	12.011
12215	CB	828	MPD2	C4	1	-0.15	12.011
12216	CB	828	MPD2	C5	1	-0.15	12.011
12217	HCMM	828	MPD2	H	1	0.15	1.0079
12218	HCMM	828	MPD2	H1	1	0.15	1.0079
12219	HCMM	828	MPD2	H2	1	0.15	1.0079
12220	HCMM	828	MPD2	H3	1	0.15	1.0079
12221	NC=O	828	MPD2	N	1	-0.547	14.0067
12222	HNCO	828	MPD2	H5	1	0.37	1.0079
12223	NC=O	828	MPD2	N1	1	-0.547	14.0067
12224	HNCO	828	MPD2	H7	1	0.37	1.0079
12225	CB	829	MPD2	C	1	-0.15	12.011
12226	CB	829	MPD2	C1	1	0.117	12.011
12227	CB	829	MPD2	C2	1	-0.15	12.011
12228	CB	829	MPD2	C3	1	0.117	12.011
12229	CB	829	MPD2	C4	1	-0.15	12.011
12230	CB	829	MPD2	C5	1	-0.15	12.011
12231	HCMM	829	MPD2	H	1	0.15	1.0079
12232	HCMM	829	MPD2	H1	1	0.15	1.0079
12233	HCMM	829	MPD2	H2	1	0.15	1.0079
12234	HCMM	829	MPD2	H3	1	0.15	1.0079
12235	NC=O	829	MPD2	N	1	-0.547	14.0067
12236	HNCO	829	MPD2	H5	1	0.37	1.0079
12237	NC=O	829	MPD2	N1	1	-0.547	14.0067
12238	HNCO	829	MPD2	H7	1	0.37	1.0079
12239	CB	830	MPD2	C	1	-0.15	12.011
12240	CB	830	MPD2	C1	1	0.117	12.011
12241	CB	830	MPD2	C2	1	-0.15	12.011
12242	CB	830	MPD2	C3	1	0.117	12.011
12243	CB	830	MPD2	C4	1	-0.15	12.011
12244	CB	830	MPD2	C5	1	-0.15	12.011
12245	HCMM	830	MPD2	H	1	0.15	1.0079
12246	HCMM	830	MPD2	H1	1	0.15	1.0079
12247	HCMM	830	MPD2	H2	1	0.15	1.0079
12248	HCMM	830	MPD2	H3	1	0.15	1.0079
12249	NC=O	830	MPD2	N	1	-0.547	14.0067
12250	HNCO	830	MPD2	H5	1	0.37	1.0079
12251	NC=O	830	MPD2	N1	1	-0.547	14.0067
12252	HNCO	830	MPD2	H7	1	0.37	1.0079
12253	CB	831	MPD2	C	1	-0.15	12.011
12254	CB	831	MPD2	C1	1	0.117	12.011
12255	CB	831	MPD2	C2	1	-0.15	12.011
12256	CB	831	MPD2	C3	1	0.117	12.011
12257	CB	831	MPD2	C4	1	-0.15	12.011
12258	CB	831	MPD2	C5	1	-0.15	12.011
12259	HCMM	831	MPD2	H	1	0.15	1.0079
12260	HCMM	831	MPD2	H1	1	0.15	1.0079
12261	HCMM	831	MPD2	H2	1	0.15	1.0079
12262	HCMM	831	MPD2	H3	1	0.15	1.0079
12263	NC=O	831	MPD2	N	1	-0.547	14.0067
12264	HNCO	831	MPD2	H5	1	0.37	1.0079
12265	NC=O	831	MPD2	N1	1	-0.547	14.0067
12266	HNCO	831	MPD2	H7	1	0.37	1.0079
12267	CB	832	MPD2	C	1	-0.15	12.011
12268	CB	832	MPD2	C1	1	0.117	12.011
12269	CB	832	MPD2	C2	1	-0.15	12.011
12270	CB	832	MPD2	C3	1	0.117	12.011
12271	CB	832	MPD2	C4	1	-0.15	12.011
12272	CB	832	MPD2	C5	1	-0.15	12.011
12273	HCMM	832	MPD2	H	1	0.15	1.0079
12274	HCMM	832	MPD2	H1	1	0.15	1.0079
12275	HCMM	832	MPD2	H2	1	0.15	1.0079
12276	HCMM	832	MPD2	H3	1	0.15	1.0079
12277	NC=O	832	MPD2	N	1	-0.547	14.0067
12278	HNCO	832	MPD2	H5	1	0.37	1.0079
12279	NC=O	832	MPD2	N1	1	-0.547	14.0067
12280	HNCO	832	MPD2	H7	1	0.37	1.0079
12281	CB	833	MPD2	C	1	-0.15	12.011
12282	CB	833	MPD2	C1	1	0.117	12.011
12283	CB	833	MPD2	C2	1	-0.15	12.011
12284	CB	833	MPD2	C3	1	0.117	12.011
12285	CB	833	MPD2	C4	1	-0.15	12.011
12286	CB	833	MPD2	C5	1	-0.15	12.011
12287	HCMM	833	MPD2	H	1	0.15	1.0079
12288	HCMM	833	MPD2	H1	1	0.15	1.0079
12289	HCMM	833	MPD2	H2	1	0.15	1.0079
12290	HCMM	833	MPD2	H3	1	0.15	1.0079
12291	NC=O	833	MPD2	N	1	-0.547	14.0067
12292	HNCO	833	MPD2	H5	1	0.37	1.0079
12293	NC=O	833	MPD2	N1	1	-0.547	14.0067
12294	HNCO	833	MPD2	H7	1	0.37	1.0079
12295	CB	834	MPD2	C	1	-0.15	12.011
12296	CB	834	MPD2	C1	1	0.117	12.011
12297	CB	834	MPD2	C2	1	-0.15	12.011
12298	CB	834	MPD2	C3	1	0.117	12.011
12299	CB	834	MPD2	C4	1	-0.15	12.011
12300	CB	834	MPD2	C5	1	-0.15	12.011
12301	HCMM	834	MPD2	H	1	0.15	1.0079
12302	HCMM	834	MPD2	H1	1	0.15	1.0079
12303	HCMM	834	MPD2	H2	1	0.15	1.0079
12304	HCMM	834	MPD2	H3	1	0.15	1.0079
12305	NC=O	834	MPD2	N	1	-0.547	14.0067
12306	HNCO	834	MPD2	H5	1	0.37	1.0079
12307	NC=O	834	MPD2	N1	1	-0.547	14.0067
12308	HNCO	834	MPD2	H7	1	0.37	1.0079
12309	CB	835	MPD2	C	1	-0.15	12.011
12310	CB	835	MPD2	C1	1	0.117	12.011
12311	CB	835	MPD2	C2	1	-0.15	12.011
12312	CB	835	MPD2	C3	1	0.117	12.011
12313	CB	835	MPD2	C4	1	-0.15	12.011
12314	CB	835	MPD2	C5	1	-0.15	12.011
12315	HCMM	835	MPD2	H	1	0.15	1.0079
12316	HCMM	835	MPD2	H1	1	0.15	1.0079
12317	HCMM	835	MPD2	H2	1	0.15	1.0079
12318	HCMM	835	MPD2	H3	1	0.15	1.0079
12319	NC=O	835	MPD2	N	1	-0.547	14.0067
12320	HNCO	835	MPD2	H5	1	0.37	1.0079
12321	NC=O	835	MPD2	N1	1	-0.547	14.0067
12322	HNCO	835	MPD2	H7	1	0.37	1.0079
12323	CB	836	MPD2	C	1	-0.15	12.011
12324	CB	836	MPD2	C1	1	0.117	12.011
12325	CB	836	MPD2	C2	1	-0.15	12.011
12326	CB	836	MPD2	C3	1	0.117	12.011
12327	CB	836	MPD2	C4	1	-0.15	12.011
12328	CB	836	MPD2	C5	1	-0.15	12.011
12329	HCMM	836	MPD2	H	1	0.15	1.0079
12330	HCMM	836	MPD2	H1	1	0.15	1.0079
12331	HCMM	836	MPD2	H2	1	0.15	1.0079
12332	HCMM	836	MPD2	H3	1	0.15	1.0079
12333	NC=O	836	MPD2	N	1	-0.547	14.0067
12334	HNCO	836	MPD2	H5	1	0.37	1.0079
12335	NC=O	836	MPD2	N1	1	-0.547	14.0067
12336	HNCO	836	MPD2	H7	1	0.37	1.0079
12337	CB	837	MPD2	C	1	-0.15	12.011
12338	CB	837	MPD2	C1	1	0.117	12.011
12339	CB	837	MPD2	C2	1	-0.15	12.011
12340	CB	837	MPD2	C3	1	0.117	12.011
12341	CB	837	MPD2	C4	1	-0.15	12.011
12342	CB	837	MPD2	C5	1	-0.15	12.011
12343	HCMM	837	MPD2	H	1	0.15	1.0079
12344	HCMM	837	MPD2	H1	1	0.15	1.0079
12345	HCMM	837	MPD2	H2	1	0.15	1.0079
12346	HCMM	837	MPD2	H3	1	0.15	1.0079
12347	NC=O	837	MPD2	N	1	-0.547	14.0067
12348	HNCO	837	MPD2	H5	1	0.37	1.0079
12349	NC=O	837	MPD2	N1	1	-0.547	14.0067
12350	HNCO	837	MPD2	H7	1	0.37	1.0079
12351	CB	838	MPD2	C	1	-0.15	12.011
12352	CB	838	MPD2	C1	1	0.117	12.011
12353	CB	838	MPD2	C2	1	-0.15	12.011
12354	CB	838	MPD2	C3	1	0.117	12.011
12355	CB	838	MPD2	C4	1	-0.15	12.011
12356	CB	838	MPD2	C5	1	-0.15	12.011
12357	HCMM	838	MPD2	H	1	0.15	1.0079
12358	HCMM	838	MPD2	H1	1	0.15	1.0079
12359	HCMM	838	MPD2	H2	1	0.15	1.0079
12360	HCMM	838	MPD2	H3	1	0.15	1.0079
12361	NC=O	838	MPD2	N	1	-0.547	14.0067
12362	HNCO	838	MPD2	H5	1	0.37	1.0079
12363	NC=O	838	MPD2	N1	1	-0.547	14.0067
12364	HNCO	838	MPD2	H7	1	0.37	1.0079
12365	CB	839	MPD2	C	1	-0.15	12.011
12366	CB	839	MPD2	C1	1	0.117	12.011
12367	CB	839	MPD2	C2	1	-0.15	12.011
12368	CB	839	MPD2	C3	1	0.117	12.011
12369	CB	839	MPD2	C4	1	-0.15	12.011
12370	CB	839	MPD2	C5	1	-0.15	12.011
12371	HCMM	839	MPD2	H	1	0.15	1.0079
12372	HCMM	839	MPD2	H1	1	0.15	1.0079
12373	HCMM	839	MPD2	H2	1	0.15	1.0079
12374	HCMM	839	MPD2	H3	1	0.15	1.0079
12375	NC=O	839	MPD2	N	1	-0.547	14.0067
12376	HNCO	839	MPD2	H5	1	0.37	1.0079
12377	NC=O	839	MPD2	N1	1	-0.547	14.0067
12378	HNCO	839	MPD2	H7	1	0.37	1.0079
12379	CB	840	MPD2	C	1	-0.15	12.011
12380	CB	840	MPD2	C1	1	0.117	12.011
12381	CB	840	MPD2	C2	1	-0.15	12.011
12382	CB	840	MPD2	C3	1	0.117	12.011
12383	CB	840	MPD2	C4	1	-0.15	12.011
12384	CB	840	MPD2	C5	1	-0.15	12.011
12385	HCMM	840	MPD2	H	1	0.15	1.0079
12386	HCMM	840	MPD2	H1	1	0.15	1.0079
12387	HCMM	840	MPD2	H2	1	0.15	1.0079
12388	HCMM	840	MPD2	H3	1	0.15	1.0079
12389	NC=O	840	MPD2	N	1	-0.547	14.0067
12390	HNCO	840	MPD2	H5	1	0.37	1.0079
12391	NC=O	840	MPD2	N1	1	-0.547	14.0067
12392	HNCO	840	MPD2	H7	1	0.37	1.0079
12393	CB	841	MPD2	C	1	-0.15	12.011
12394	CB	841	MPD2	C1	1	0.117	12.011
12395	CB	841	MPD2	C2	1	-0.15	12.011
12396	CB	841	MPD2	C3	1	0.117	12.011
12397	CB	841	MPD2	C4	1	-0.15	12.011
12398	CB	841	MPD2	C5	1	-0.15	12.011
12399	HCMM	841	MPD2	H	1	0.15	1.0079
12400	HCMM	841	MPD2	H1	1	0.15	1.0079
12401	HCMM	841	MPD2	H2	1	0.15	1.0079
12402	HCMM	841	MPD2	H3	1	0.15	1.0079
12403	NC=O	841	MPD2	N	1	-0.547	14.0067
12404	HNCO	841	MPD2	H5	1	0.37	1.0079
12405	NC=O	841	MPD2	N1	1	-0.547	14.0067
12406	HNCO	841	MPD2	H7	1	0.37	1.0079
12407	CB	842	MPD2	C	1	-0.15	12.011
12408	CB	842	MPD2	C1	1	0.117	12.011
12409	CB	842	MPD2	C2	1	-0.15	12.011
12410	CB	842	MPD2	C3	1	0.117	12.011
12411	CB	842	MPD2	C4	1	-0.15	12.011
12412	CB	842	MPD2	C5	1	-0.15	12.011
12413	HCMM	842	MPD2	H	1	0.15	1.0079
12414	HCMM	842	MPD2	H1	1	0.15	1.0079
12415	HCMM	842	MPD2	H2	1	0.15	1.0079
12416	HCMM	842	MPD2	H3	1	0.15	1.0079
12417	NC=O	842	MPD2	N	1	-0.547	14.0067
12418	HNCO	842	MPD2	H5	1	0.37	1.0079
12419	NC=O	842	MPD2	N1	1	-0.547	14.0067
12420	HNCO	842	MPD2	H7	1	0.37	1.0079
12421	CB	843	MPD2	C	1	-0.15	12.011
12422	CB	843	MPD2	C1	1	0.117	12.011
12423	CB	843	MPD2	C2	1	-0.15	12.011
12424	CB	843	MPD2	C3	1	0.117	12.011
12425	CB	843	MPD2	C4	1	-0.15	12.011
12426	CB	843	MPD2	C5	1	-0.15	12.011
12427	HCMM	843	MPD2	H	1	0.15	1.0079
12428	HCMM	843	MPD2	H1	1	0.15	1.0079
12429	HCMM	843	MPD2	H2	1	0.15	1.0079
12430	HCMM	843	MPD2	H3	1	0.15	1.0079
12431	NC=O	843	MPD2	N	1	-0.547	14.0067
12432	HNCO	843	MPD2	H5	1	0.37	1.0079
12433	NC=O	843	MPD2	N1	1	-0.547	14.0067
12434	HNCO	843	MPD2	H7	1	0.37	1.0079
12435	CB	844	MPD2	C	1	-0.15	12.011
12436	CB	844	MPD2	C1	1	0.117	12.011
12437	CB	844	MPD2	C2	1	-0.15	12.011
12438	CB	844	MPD2	C3	1	0.117	12.011
12439	CB	844	MPD2	C4	1	-0.15	12.011
12440	CB	844	MPD2	C5	1	-0.15	12.011
12441	HCMM	844	MPD2	H	1	0.15	1.0079
12442	HCMM	844	MPD2	H1	1	0.15	1.0079
12443	HCMM	844	MPD2	H2	1	0.15	1.0079
12444	HCMM	844	MPD2	H3	1	0.15	1.0079
12445	NC=O	844	MPD2	N	1	-0.547	14.0067
12446	HNCO	844	MPD2	H5	1	0.37	1.0079
12447	NC=O	844	MPD2	N1	1	-0.547	14.0067
12448	HNCO	844	MPD2	H7	1	0.37	1.0079
12449	CB	845	MPD2	C	1	-0.15	12.011
12450	CB	845	MPD2	C1	1	0.117	12.011
12451	CB	845	MPD2	C2	1	-0.15	12.011
12452	CB	845	MPD2	C3	1	0.117	12.011
12453	CB	845	MPD2	C4	1	-0.15	12.011
12454	CB	845	MPD2	C5	1	-0.15	12.011
12455	HCMM	845	MPD2	H	1	0.15	1.0079
12456	HCMM	845	MPD2	H1	1	0.15	1.0079
12457	HCMM	845	MPD2	H2	1	0.15	1.0079
12458	HCMM	845	MPD2	H3	1	0.15	1.0079
12459	NC=O	845	MPD2	N	1	-0.547	14.0067
12460	HNCO	845	MPD2	H5	1	0.37	1.0079
12461	NC=O	845	MPD2	N1	1	-0.547	14.0067
12462	HNCO	845	MPD2	H7	1	0.37	1.0079
12463	CB	846	MPD2	C	1	-0.15	12.011
12464	CB	846	MPD2	C1	1	0.117	12.011
12465	CB	846	MPD2	C2	1	-0.15	12.011
12466	CB	846	MPD2	C3	1	0.117	12.011
12467	CB	846	MPD2	C4	1	-0.15	12.011
12468	CB	846	MPD2	C5	1	-0.15	12.011
12469	HCMM	846	MPD2	H	1	0.15	1.0079
12470	HCMM	846	MPD2	H1	1	0.15	1.0079
12471	HCMM	846	MPD2	H2	1	0.15	1.0079
12472	HCMM	846	MPD2	H3	1	0.15	1.0079
12473	NC=O	846	MPD2	N	1	-0.547	14.0067
12474	HNCO	846	MPD2	H5	1	0.37	1.0079
12475	NC=O	846	MPD2	N1	1	-0.547	14.0067
12476	HNCO	846	MPD2	H7	1	0.37	1.0079
12477	CB	847	MPD2	C	1	-0.15	12.011
12478	CB	847	MPD2	C1	1	0.117	12.011
12479	CB	847	MPD2	C2	1	-0.15	12.011
12480	CB	847	MPD2	C3	1	0.117	12.011
12481	CB	847	MPD2	C4	1	-0.15	12.011
12482	CB	847	MPD2	C5	1	-0.15	12.011
12483	HCMM	847	MPD2	H	1	0.15	1.0079
12484	HCMM	847	MPD2	H1	1	0.15	1.0079
12485	HCMM	847	MPD2	H2	1	0.15	1.0079
12486	HCMM	847	MPD2	H3	1	0.15	1.0079
12487	NC=O	847	MPD2	N	1	-0.547	14.0067
12488	HNCO	847	MPD2	H5	1	0.37	1.0079
12489	NC=O	847	MPD2	N1	1	-0.547	14.0067
12490	HNCO	847	MPD2	H7	1	0.37	1.0079
12491	CB	848	MPD2	C	1	-0.15	12.011
12492	CB	848	MPD2	C1	1	0.117	12.011
12493	CB	848	MPD2	C2	1	-0.15	12.011
12494	CB	848	MPD2	C3	1	0.117	12.011
12495	CB	848	MPD2	C4	1	-0.15	12.011
12496	CB	848	MPD2	C5	1	-0.15	12.011
12497	HCMM	848	MPD2	H	1	0.15	1.0079
12498	HCMM	848	MPD2	H1	1	0.15	1.0079
12499	HCMM	848	MPD2	H2	1	0.15	1.0079
12500	HCMM	848	MPD2	H3	1	0.15	1.0079
12501	NC=O	848	MPD2	N	1	-0.547	14.0067
12502	HNCO	848	MPD2	H5	1	0.37	1.0079
12503	NC=O	848	MPD2	N1	1	-0.547	14.0067
12504	HNCO	848	MPD2	H7	1	0.37	1.0079
12505	CB	849	MPD2	C	1	-0.15	12.011
12506	CB	849	MPD2	C1	1	0.117	12.011
12507	CB	849	MPD2	C2	1	-0.15	12.011
12508	CB	849	MPD2	C3	1	0.117	12.011
12509	CB	849	MPD2	C4	1	-0.15	12.011
12510	CB	849	MPD2	C5	1	-0.15	12.011
12511	HCMM	849	MPD2	H	1	0.15	1.0079
12512	HCMM	849	MPD2	H1	1	0.15	1.0079
12513	HCMM	849	MPD2	H2	1	0.15	1.0079
12514	HCMM	849	MPD2	H3	1	0.15	1.0079
12515	NC=O	849	MPD2	N	1	-0.547	14.0067
12516	HNCO	849	MPD2	H5	1	0.37	1.0079
12517	NC=O	849	MPD2	N1	1	-0.547	14.0067
12518	HNCO	849	MPD2	H7	1	0.37	1.0079
12519	CB	850	MPD2	C	1	-0.15	12.011
12520	CB	850	MPD2	C1	1	0.117	12.011
12521	CB	850	MPD2	C2	1	-0.15	12.011
12522	CB	850	MPD2	C3	1	0.117	12.011
12523	CB	850	MPD2	C4	1	-0.15	12.011
12524	CB	850	MPD2	C5	1	-0.15	12.011
12525	HCMM	850	MPD2	H	1	0.15	1.0079
12526	HCMM	850	MPD2	H1	1	0.15	1.0079
12527	HCMM	850	MPD2	H2	1	0.15	1.0079
12528	HCMM	850	MPD2	H3	1	0.15	1.0079
12529	NC=O	850	MPD2	N	1	-0.547	14.0067
12530	HNCO	850	MPD2	H5	1	0.37	1.0079
12531	NC=O	850	MPD2	N1	1	-0.547	14.0067
12532	HNCO	850	MPD2	H7	1	0.37	1.0079
12533	CB	851	MPD2	C	1	-0.15	12.011
12534	CB	851	MPD2	C1	1	0.117	12.011
12535	CB	851	MPD2	C2	1	-0.15	12.011
12536	CB	851	MPD2	C3	1	0.117	12.011
12537	CB	851	MPD2	C4	1	-0.15	12.011
12538	CB	851	MPD2	C5	1	-0.15	12.011
12539	HCMM	851	MPD2	H	1	0.15	1.0079
12540	HCMM	851	MPD2	H1	1	0.15	1.0079
12541	HCMM	851	MPD2	H2	1	0.15	1.0079
12542	HCMM	851	MPD2	H3	1	0.15	1.0079
12543	NC=O	851	MPD2	N	1	-0.547	14.0067
12544	HNCO	851	MPD2	H5	1	0.37	1.0079
12545	NC=O	851	MPD2	N1	1	-0.547	14.0067
12546	HNCO	851	MPD2	H7	1	0.37	1.0079
12547	CB	852	MPD2	C	1	-0.15	12.011
12548	CB	852	MPD2	C1	1	0.117	12.011
12549	CB	852	MPD2	C2	1	-0.15	12.011
12550	CB	852	MPD2	C3	1	0.117	12.011
12551	CB	852	MPD2	C4	1	-0.15	12.011
12552	CB	852	MPD2	C5	1	-0.15	12.011
12553	HCMM	852	MPD2	H	1	0.15	1.0079
12554	HCMM	852	MPD2	H1	1	0.15	1.0079
12555	HCMM	852	MPD2	H2	1	0.15	1.0079
12556	HCMM	852	MPD2	H3	1	0.15	1.0079
12557	NC=O	852	MPD2	N	1	-0.547	14.0067
12558	HNCO	852	MPD2	H5	1	0.37	1.0079
12559	NC=O	852	MPD2	N1	1	-0.547	14.0067
12560	HNCO	852	MPD2	H7	1	0.37	1.0079
12561	CB	853	MPD2	C	1	-0.15	12.011
12562	CB	853	MPD2	C1	1	0.117	12.011
12563	CB	853	MPD2	C2	1	-0.15	12.011
12564	CB	853	MPD2	C3	1	0.117	12.011
12565	CB	853	MPD2	C4	1	-0.15	12.011
12566	CB	853	MPD2	C5	1	-0.15	12.011
12567	HCMM	853	MPD2	H	1	0.15	1.0079
12568	HCMM	853	MPD2	H1	1	0.15	1.0079
12569	HCMM	853	MPD2	H2	1	0.15	1.0079
12570	HCMM	853	MPD2	H3	1	0.15	1.0079
12571	NC=O	853	MPD2	N	1	-0.547	14.0067
12572	HNCO	853	MPD2	H5	1	0.37	1.0079
12573	NC=O	853	MPD2	N1	1	-0.547	14.0067
12574	HNCO	853	MPD2	H7	1	0.37	1.0079
12575	CB	854	MPD2	C	1	-0.15	12.011
12576	CB	854	MPD2	C1	1	0.117	12.011
12577	CB	854	MPD2	C2	1	-0.15	12.011
12578	CB	854	MPD2	C3	1	0.117	12.011
12579	CB	854	MPD2	C4	1	-0.15	12.011
12580	CB	854	MPD2	C5	1	-0.15	12.011
12581	HCMM	854	MPD2	H	1	0.15	1.0079
12582	HCMM	854	MPD2	H1	1	0.15	1.0079
12583	HCMM	854	MPD2	H2	1	0.15	1.0079
12584	HCMM	854	MPD2	H3	1	0.15	1.0079
12585	NC=O	854	MPD2	N	1	-0.547	14.0067
12586	HNCO	854	MPD2	H5	1	0.37	1.0079
12587	NC=O	854	MPD2	N1	1	-0.547	14.0067
12588	HNCO	854	MPD2	H7	1	0.37	1.0079
12589	CB	855	MPD2	C	1	-0.15	12.011
12590	CB	855	MPD2	C1	1	0.117	12.011
12591	CB	855	MPD2	C2	1	-0.15	12.011
12592	CB	855	MPD2	C3	1	0.117	12.011
12593	CB	855	MPD2	C4	1	-0.15	12.011
12594	CB	855	MPD2	C5	1	-0.15	12.011
12595	HCMM	855	MPD2	H	1	0.15	1.0079
12596	HCMM	855	MPD2	H1	1	0.15	1.0079
12597	HCMM	855	MPD2	H2	1	0.15	1.0079
12598	HCMM	855	MPD2	H3	1	0.15	1.0079
12599	NC=O	855	MPD2	N	1	-0.547	14.0067
12600	HNCO	855	MPD2	H5	1	0.37	1.0079
12601	NC=O	855	MPD2	N1	1	-0.547	14.0067
12602	HNCO	855	MPD2	H7	1	0.37	1.0079
12603	CB	856	MPD2	C	1	-0.15	12.011
12604	CB	856	MPD2	C1	1	0.117	12.011
12605	CB	856	MPD2	C2	1	-0.15	12.011
12606	CB	856	MPD2	C3	1	0.117	12.011
12607	CB	856	MPD2	C4	1	-0.15	12.011
12608	CB	856	MPD2	C5	1	-0.15	12.011
12609	HCMM	856	MPD2	H	1	0.15	1.0079
12610	HCMM	856	MPD2	H1	1	0.15	1.0079
12611	HCMM	856	MPD2	H2	1	0.15	1.0079
12612	HCMM	856	MPD2	H3	1	0.15	1.0079
12613	NC=O	856	MPD2	N	1	-0.547	14.0067
12614	HNCO	856	MPD2	H5	1	0.37	1.0079
12615	NC=O	856	MPD2	N1	1	-0.547	14.0067
12616	HNCO	856	MPD2	H7	1	0.37	1.0079
12617	CB	857	MPD2	C	1	-0.15	12.011
12618	CB	857	MPD2	C1	1	0.117	12.011
12619	CB	857	MPD2	C2	1	-0.15	12.011
12620	CB	857	MPD2	C3	1	0.117	12.011
12621	CB	857	MPD2	C4	1	-0.15	12.011
12622	CB	857	MPD2	C5	1	-0.15	12.011
12623	HCMM	857	MPD2	H	1	0.15	1.0079
12624	HCMM	857	MPD2	H1	1	0.15	1.0079
12625	HCMM	857	MPD2	H2	1	0.15	1.0079
12626	HCMM	857	MPD2	H3	1	0.15	1.0079
12627	NC=O	857	MPD2	N	1	-0.547	14.0067
12628	HNCO	857	MPD2	H5	1	0.37	1.0079
12629	NC=O	857	MPD2	N1	1	-0.547	14.0067
12630	HNCO	857	MPD2	H7	1	0.37	1.0079
12631	CB	858	MPD2	C	1	-0.15	12.011
12632	CB	858	MPD2	C1	1	0.117	12.011
12633	CB	858	MPD2	C2	1	-0.15	12.011
12634	CB	858	MPD2	C3	1	0.117	12.011
12635	CB	858	MPD2	C4	1	-0.15	12.011
12636	CB	858	MPD2	C5	1	-0.15	12.011
12637	HCMM	858	MPD2	H	1	0.15	1.0079
12638	HCMM	858	MPD2	H1	1	0.15	1.0079
12639	HCMM	858	MPD2	H2	1	0.15	1.0079
12640	HCMM	858	MPD2	H3	1	0.15	1.0079
12641	NC=O	858	MPD2	N	1	-0.547	14.0067
12642	HNCO	858	MPD2	H5	1	0.37	1.0079
12643	NC=O	858	MPD2	N1	1	-0.547	14.0067
12644	HNCO	858	MPD2	H7	1	0.37	1.0079
12645	CB	859	MPD2	C	1	-0.15	12.011
12646	CB	859	MPD2	C1	1	0.117	12.011
12647	CB	859	MPD2	C2	1	-0.15	12.011
12648	CB	859	MPD2	C3	1	0.117	12.011
12649	CB	859	MPD2	C4	1	-0.15	12.011
12650	CB	859	MPD2	C5	1	-0.15	12.011
12651	HCMM	859	MPD2	H	1	0.15	1.0079
12652	HCMM	859	MPD2	H1	1	0.15	1.0079
12653	HCMM	859	MPD2	H2	1	0.15	1.0079
12654	HCMM	859	MPD2	H3	1	0.15	1.0079
12655	NC=O	859	MPD2	N	1	-0.547	14.0067
12656	HNCO	859	MPD2	H5	1	0.37	1.0079
12657	NC=O	859	MPD2	N1	1	-0.547	14.0067
12658	HNCO	859	MPD2	H7	1	0.37	1.0079
12659	CB	860	MPD2	C	1	-0.15	12.011
12660	CB	860	MPD2	C1	1	0.117	12.011
12661	CB	860	MPD2	C2	1	-0.15	12.011
12662	CB	860	MPD2	C3	1	0.117	12.011
12663	CB	860	MPD2	C4	1	-0.15	12.011
12664	CB	860	MPD2	C5	1	-0.15	12.011
12665	HCMM	860	MPD2	H	1	0.15	1.0079
12666	HCMM	860	MPD2	H1	1	0.15	1.0079
12667	HCMM	860	MPD2	H2	1	0.15	1.0079
12668	HCMM	860	MPD2	H3	1	0.15	1.0079
12669	NC=O	860	MPD2	N	1	-0.547	14.0067
12670	HNCO	860	MPD2	H5	1	0.37	1.0079
12671	NC=O	860	MPD2	N1	1	-0.547	14.0067
12672	HNCO	860	MPD2	H7	1	0.37	1.0079
12673	CB	861	MPD2	C	1	-0.15	12.011
12674	CB	861	MPD2	C1	1	0.117	12.011
12675	CB	861	MPD2	C2	1	-0.15	12.011
12676	CB	861	MPD2	C3	1	0.117	12.011
12677	CB	861	MPD2	C4	1	-0.15	12.011
12678	CB	861	MPD2	C5	1	-0.15	12.011
12679	HCMM	861	MPD2	H	1	0.15	1.0079
12680	HCMM	861	MPD2	H1	1	0.15	1.0079
12681	HCMM	861	MPD2	H2	1	0.15	1.0079
12682	HCMM	861	MPD2	H3	1	0.15	1.0079
12683	NC=O	861	MPD2	N	1	-0.547	14.0067
12684	HNCO	861	MPD2	H5	1	0.37	1.0079
12685	NC=O	861	MPD2	N1	1	-0.547	14.0067
12686	HNCO	861	MPD2	H7	1	0.37	1.0079
12687	CB	862	MPD2	C	1	-0.15	12.011
12688	CB	862	MPD2	C1	1	0.117	12.011
12689	CB	862	MPD2	C2	1	-0.15	12.011
12690	CB	862	MPD2	C3	1	0.117	12.011
12691	CB	862	MPD2	C4	1	-0.15	12.011
12692	CB	862	MPD2	C5	1	-0.15	12.011
12693	HCMM	862	MPD2	H	1	0.15	1.0079
12694	HCMM	862	MPD2	H1	1	0.15	1.0079
12695	HCMM	862	MPD2	H2	1	0.15	1.0079
12696	HCMM	862	MPD2	H3	1	0.15	1.0079
12697	NC=O	862	MPD2	N	1	-0.547	14.0067
12698	HNCO	862	MPD2	H5	1	0.37	1.0079
12699	NC=O	862	MPD2	N1	1	-0.547	14.0067
12700	HNCO	862	MPD2	H7	1	0.37	1.0079
12701	CB	863	MPD2	C	1	-0.15	12.011
12702	CB	863	MPD2	C1	1	0.117	12.011
12703	CB	863	MPD2	C2	1	-0.15	12.011
12704	CB	863	MPD2	C3	1	0.117	12.011
12705	CB	863	MPD2	C4	1	-0.15	12.011
12706	CB	863	MPD2	C5	1	-0.15	12.011
12707	HCMM	863	MPD2	H	1	0.15	1.0079
12708	HCMM	863	MPD2	H1	1	0.15	1.0079
12709	HCMM	863	MPD2	H2	1	0.15	1.0079
12710	HCMM	863	MPD2	H3	1	0.15	1.0079
12711	NC=O	863	MPD2	N	1	-0.547	14.0067
12712	HNCO	863	MPD2	H5	1	0.37	1.0079
12713	NC=O	863	MPD2	N1	1	-0.547	14.0067
12714	HNCO	863	MPD2	H7	1	0.37	1.0079
12715	CB	864	MPD2	C	1	-0.15	12.011
12716	CB	864	MPD2	C1	1	0.117	12.011
12717	CB	864	MPD2	C2	1	-0.15	12.011
12718	CB	864	MPD2	C3	1	0.117	12.011
12719	CB	864	MPD2	C4	1	-0.15	12.011
12720	CB	864	MPD2	C5	1	-0.15	12.011
12721	HCMM	864	MPD2	H	1	0.15	1.0079
12722	HCMM	864	MPD2	H1	1	0.15	1.0079
12723	HCMM	864	MPD2	H2	1	0.15	1.0079
12724	HCMM	864	MPD2	H3	1	0.15	1.0079
12725	NC=O	864	MPD2	N	1	-0.547	14.0067
12726	HNCO	864	MPD2	H5	1	0.37	1.0079
12727	NC=O	864	MPD2	N1	1	-0.547	14.0067
12728	HNCO	864	MPD2	H7	1	0.37	1.0079
12729	CB	865	MPD2	C	1	-0.15	12.011
12730	CB	865	MPD2	C1	1	0.117	12.011
12731	CB	865	MPD2	C2	1	-0.15	12.011
12732	CB	865	MPD2	C3	1	0.117	12.011
12733	CB	865	MPD2	C4	1	-0.15	12.011
12734	CB	865	MPD2	C5	1	-0.15	12.011
12735	HCMM	865	MPD2	H	1	0.15	1.0079
12736	HCMM	865	MPD2	H1	1	0.15	1.0079
12737	HCMM	865	MPD2	H2	1	0.15	1.0079
12738	HCMM	865	MPD2	H3	1	0.15	1.0079
12739	NC=O	865	MPD2	N	1	-0.547	14.0067
12740	HNCO	865	MPD2	H5	1	0.37	1.0079
12741	NC=O	865	MPD2	N1	1	-0.547	14.0067
12742	HNCO	865	MPD2	H7	1	0.37	1.0079
12743	CB	866	MPD2	C	1	-0.15	12.011
12744	CB	866	MPD2	C1	1	0.117	12.011
12745	CB	866	MPD2	C2	1	-0.15	12.011
12746	CB	866	MPD2	C3	1	0.117	12.011
12747	CB	866	MPD2	C4	1	-0.15	12.011
12748	CB	866	MPD2	C5	1	-0.15	12.011
12749	HCMM	866	MPD2	H	1	0.15	1.0079
12750	HCMM	866	MPD2	H1	1	0.15	1.0079
12751	HCMM	866	MPD2	H2	1	0.15	1.0079
12752	HCMM	866	MPD2	H3	1	0.15	1.0079
12753	NC=O	866	MPD2	N	1	-0.547	14.0067
12754	HNCO	866	MPD2	H5	1	0.37	1.0079
12755	NC=O	866	MPD2	N1	1	-0.547	14.0067
12756	HNCO	866	MPD2	H7	1	0.37	1.0079
12757	CB	867	MPD2	C	1	-0.15	12.011
12758	CB	867	MPD2	C1	1	0.117	12.011
12759	CB	867	MPD2	C2	1	-0.15	12.011
12760	CB	867	MPD2	C3	1	0.117	12.011
12761	CB	867	MPD2	C4	1	-0.15	12.011
12762	CB	867	MPD2	C5	1	-0.15	12.011
12763	HCMM	867	MPD2	H	1	0.15	1.0079
12764	HCMM	867	MPD2	H1	1	0.15	1.0079
12765	HCMM	867	MPD2	H2	1	0.15	1.0079
12766	HCMM	867	MPD2	H3	1	0.15	1.0079
12767	NC=O	867	MPD2	N	1	-0.547	14.0067
12768	HNCO	867	MPD2	H5	1	0.37	1.0079
12769	NC=O	867	MPD2	N1	1	-0.547	14.0067
12770	HNCO	867	MPD2	H7	1	0.37	1.0079
12771	CB	868	MPD2	C	1	-0.15	12.011
12772	CB	868	MPD2	C1	1	0.117	12.011
12773	CB	868	MPD2	C2	1	-0.15	12.011
12774	CB	868	MPD2	C3	1	0.117	12.011
12775	CB	868	MPD2	C4	1	-0.15	12.011
12776	CB	868	MPD2	C5	1	-0.15	12.011
12777	HCMM	868	MPD2	H	1	0.15	1.0079
12778	HCMM	868	MPD2	H1	1	0.15	1.0079
12779	HCMM	868	MPD2	H2	1	0.15	1.0079
12780	HCMM	868	MPD2	H3	1	0.15	1.0079
12781	NC=O	868	MPD2	N	1	-0.547	14.0067
12782	HNCO	868	MPD2	H5	1	0.37	1.0079
12783	NC=O	868	MPD2	N1	1	-0.547	14.0067
12784	HNCO	868	MPD2	H7	1	0.37	1.0079
12785	CB	869	MPD2	C	1	-0.15	12.011
12786	CB	869	MPD2	C1	1	0.117	12.011
12787	CB	869	MPD2	C2	1	-0.15	12.011
12788	CB	869	MPD2	C3	1	0.117	12.011
12789	CB	869	MPD2	C4	1	-0.15	12.011
12790	CB	869	MPD2	C5	1	-0.15	12.011
12791	HCMM	869	MPD2	H	1	0.15	1.0079
12792	HCMM	869	MPD2	H1	1	0.15	1.0079
12793	HCMM	869	MPD2	H2	1	0.15	1.0079
12794	HCMM	869	MPD2	H3	1	0.15	1.0079
12795	NC=O	869	MPD2	N	1	-0.547	14.0067
12796	HNCO	869	MPD2	H5	1	0.37	1.0079
12797	NC=O	869	MPD2	N1	1	-0.547	14.0067
12798	HNCO	869	MPD2	H7	1	0.37	1.0079
12799	CB	870	MPD2	C	1	-0.15	12.011
12800	CB	870	MPD2	C1	1	0.117	12.011
12801	CB	870	MPD2	C2	1	-0.15	12.011
12802	CB	870	MPD2	C3	1	0.117	12.011
12803	CB	870	MPD2	C4	1	-0.15	12.011
12804	CB	870	MPD2	C5	1	-0.15	12.011
12805	HCMM	870	MPD2	H	1	0.15	1.0079
12806	HCMM	870	MPD2	H1	1	0.15	1.0079
12807	HCMM	870	MPD2	H2	1	0.15	1.0079
12808	HCMM	870	MPD2	H3	1	0.15	1.0079
12809	NC=O	870	MPD2	N	1	-0.547	14.0067
12810	HNCO	870	MPD2	H5	1	0.37	1.0079
12811	NC=O	870	MPD2	N1	1	-0.547	14.0067
12812	HNCO	870	MPD2	H7	1	0.37	1.0079
12813	CB	871	MPD2	C	1	-0.15	12.011
12814	CB	871	MPD2	C1	1	0.117	12.011
12815	CB	871	MPD2	C2	1	-0.15	12.011
12816	CB	871	MPD2	C3	1	0.117	12.011
12817	CB	871	MPD2	C4	1	-0.15	12.011
12818	CB	871	MPD2	C5	1	-0.15	12.011
12819	HCMM	871	MPD2	H	1	0.15	1.0079
12820	HCMM	871	MPD2	H1	1	0.15	1.0079
12821	HCMM	871	MPD2	H2	1	0.15	1.0079
12822	HCMM	871	MPD2	H3	1	0.15	1.0079
12823	NC=O	871	MPD2	N	1	-0.547	14.0067
12824	HNCO	871	MPD2	H5	1	0.37	1.0079
12825	NC=O	871	MPD2	N1	1	-0.547	14.0067
12826	HNCO	871	MPD2	H7	1	0.37	1.0079
12827	CB	872	MPD2	C	1	-0.15	12.011
12828	CB	872	MPD2	C1	1	0.117	12.011
12829	CB	872	MPD2	C2	1	-0.15	12.011
12830	CB	872	MPD2	C3	1	0.117	12.011
12831	CB	872	MPD2	C4	1	-0.15	12.011
12832	CB	872	MPD2	C5	1	-0.15	12.011
12833	HCMM	872	MPD2	H	1	0.15	1.0079
12834	HCMM	872	MPD2	H1	1	0.15	1.0079
12835	HCMM	872	MPD2	H2	1	0.15	1.0079
12836	HCMM	872	MPD2	H3	1	0.15	1.0079
12837	NC=O	872	MPD2	N	1	-0.547	14.0067
12838	HNCO	872	MPD2	H5	1	0.37	1.0079
12839	NC=O	872	MPD2	N1	1	-0.547	14.0067
12840	HNCO	872	MPD2	H7	1	0.37	1.0079
12841	CB	873	MPD2	C	1	-0.15	12.011
12842	CB	873	MPD2	C1	1	0.117	12.011
12843	CB	873	MPD2	C2	1	-0.15	12.011
12844	CB	873	MPD2	C3	1	0.117	12.011
12845	CB	873	MPD2	C4	1	-0.15	12.011
12846	CB	873	MPD2	C5	1	-0.15	12.011
12847	HCMM	873	MPD2	H	1	0.15	1.0079
12848	HCMM	873	MPD2	H1	1	0.15	1.0079
12849	HCMM	873	MPD2	H2	1	0.15	1.0079
12850	HCMM	873	MPD2	H3	1	0.15	1.0079
12851	NC=O	873	MPD2	N	1	-0.547	14.0067
12852	HNCO	873	MPD2	H5	1	0.37	1.0079
12853	NC=O	873	MPD2	N1	1	-0.547	14.0067
12854	HNCO	873	MPD2	H7	1	0.37	1.0079
12855	CB	874	MPD2	C	1	-0.15	12.011
12856	CB	874	MPD2	C1	1	0.117	12.011
12857	CB	874	MPD2	C2	1	-0.15	12.011
12858	CB	874	MPD2	C3	1	0.117	12.011
12859	CB	874	MPD2	C4	1	-0.15	12.011
12860	CB	874	MPD2	C5	1	-0.15	12.011
12861	HCMM	874	MPD2	H	1	0.15	1.0079
12862	HCMM	874	MPD2	H1	1	0.15	1.0079
12863	HCMM	874	MPD2	H2	1	0.15	1.0079
12864	HCMM	874	MPD2	H3	1	0.15	1.0079
12865	NC=O	874	MPD2	N	1	-0.547	14.0067
12866	HNCO	874	MPD2	H5	1	0.37	1.0079
12867	NC=O	874	MPD2	N1	1	-0.547	14.0067
12868	HNCO	874	MPD2	H7	1	0.37	1.0079
12869	CB	875	MPD2	C	1	-0.15	12.011
12870	CB	875	MPD2	C1	1	0.117	12.011
12871	CB	875	MPD2	C2	1	-0.15	12.011
12872	CB	875	MPD2	C3	1	0.117	12.011
12873	CB	875	MPD2	C4	1	-0.15	12.011
12874	CB	875	MPD2	C5	1	-0.15	12.011
12875	HCMM	875	MPD2	H	1	0.15	1.0079
12876	HCMM	875	MPD2	H1	1	0.15	1.0079
12877	HCMM	875	MPD2	H2	1	0.15	1.0079
12878	HCMM	875	MPD2	H3	1	0.15	1.0079
12879	NC=O	875	MPD2	N	1	-0.547	14.0067
12880	HNCO	875	MPD2	H5	1	0.37	1.0079
12881	NC=O	875	MPD2	N1	1	-0.547	14.0067
12882	HNCO	875	MPD2	H7	1	0.37	1.0079
12883	CB	876	MPD2	C	1	-0.15	12.011
12884	CB	876	MPD2	C1	1	0.117	12.011
12885	CB	876	MPD2	C2	1	-0.15	12.011
12886	CB	876	MPD2	C3	1	0.117	12.011
12887	CB	876	MPD2	C4	1	-0.15	12.011
12888	CB	876	MPD2	C5	1	-0.15	12.011
12889	HCMM	876	MPD2	H	1	0.15	1.0079
12890	HCMM	876	MPD2	H1	1	0.15	1.0079
12891	HCMM	876	MPD2	H2	1	0.15	1.0079
12892	HCMM	876	MPD2	H3	1	0.15	1.0079
12893	NC=O	876	MPD2	N	1	-0.547	14.0067
12894	HNCO	876	MPD2	H5	1	0.37	1.0079
12895	NC=O	876	MPD2	N1	1	-0.547	14.0067
12896	HNCO	876	MPD2	H7	1	0.37	1.0079
12897	CB	877	MPD2	C	1	-0.15	12.011
12898	CB	877	MPD2	C1	1	0.117	12.011
12899	CB	877	MPD2	C2	1	-0.15	12.011
12900	CB	877	MPD2	C3	1	0.117	12.011
12901	CB	877	MPD2	C4	1	-0.15	12.011
12902	CB	877	MPD2	C5	1	-0.15	12.011
12903	HCMM	877	MPD2	H	1	0.15	1.0079
12904	HCMM	877	MPD2	H1	1	0.15	1.0079
12905	HCMM	877	MPD2	H2	1	0.15	1.0079
12906	HCMM	877	MPD2	H3	1	0.15	1.0079
12907	NC=O	877	MPD2	N	1	-0.547	14.0067
12908	HNCO	877	MPD2	H5	1	0.37	1.0079
12909	NC=O	877	MPD2	N1	1	-0.547	14.0067
12910	HNCO	877	MPD2	H7	1	0.37	1.0079
12911	CB	878	MPD2	C	1	-0.15	12.011
12912	CB	878	MPD2	C1	1	0.117	12.011
12913	CB	878	MPD2	C2	1	-0.15	12.011
12914	CB	878	MPD2	C3	1	0.117	12.011
12915	CB	878	MPD2	C4	1	-0.15	12.011
12916	CB	878	MPD2	C5	1	-0.15	12.011
12917	HCMM	878	MPD2	H	1	0.15	1.0079
12918	HCMM	878	MPD2	H1	1	0.15	1.0079
12919	HCMM	878	MPD2	H2	1	0.15	1.0079
12920	HCMM	878	MPD2	H3	1	0.15	1.0079
12921	NC=O	878	MPD2	N	1	-0.547	14.0067
12922	HNCO	878	MPD2	H5	1	0.37	1.0079
12923	NC=O	878	MPD2	N1	1	-0.547	14.0067
12924	HNCO	878	MPD2	H7	1	0.37	1.0079
12925	CB	879	MPD2	C	1	-0.15	12.011
12926	CB	879	MPD2	C1	1	0.117	12.011
12927	CB	879	MPD2	C2	1	-0.15	12.011
12928	CB	879	MPD2	C3	1	0.117	12.011
12929	CB	879	MPD2	C4	1	-0.15	12.011
12930	CB	879	MPD2	C5	1	-0.15	12.011
12931	HCMM	879	MPD2	H	1	0.15	1.0079
12932	HCMM	879	MPD2	H1	1	0.15	1.0079
12933	HCMM	879	MPD2	H2	1	0.15	1.0079
12934	HCMM	879	MPD2	H3	1	0.15	1.0079
12935	NC=O	879	MPD2	N	1	-0.547	14.0067
12936	HNCO	879	MPD2	H5	1	0.37	1.0079
12937	NC=O	879	MPD2	N1	1	-0.547	14.0067
12938	HNCO	879	MPD2	H7	1	0.37	1.0079
12939	CB	880	MPD2	C	1	-0.15	12.011
12940	CB	880	MPD2	C1	1	0.117	12.011
12941	CB	880	MPD2	C2	1	-0.15	12.011
12942	CB	880	MPD2	C3	1	0.117	12.011
12943	CB	880	MPD2	C4	1	-0.15	12.011
12944	CB	880	MPD2	C5	1	-0.15	12.011
12945	HCMM	880	MPD2	H	1	0.15	1.0079
12946	HCMM	880	MPD2	H1	1	0.15	1.0079
12947	HCMM	880	MPD2	H2	1	0.15	1.0079
12948	HCMM	880	MPD2	H3	1	0.15	1.0079
12949	NC=O	880	MPD2	N	1	-0.547	14.0067
12950	HNCO	880	MPD2	H5	1	0.37	1.0079
12951	NC=O	880	MPD2	N1	1	-0.547	14.0067
12952	HNCO	880	MPD2	H7	1	0.37	1.0079
12953	CB	881	MPD2	C	1	-0.15	12.011
12954	CB	881	MPD2	C1	1	0.117	12.011
12955	CB	881	MPD2	C2	1	-0.15	12.011
12956	CB	881	MPD2	C3	1	0.117	12.011
12957	CB	881	MPD2	C4	1	-0.15	12.011
12958	CB	881	MPD2	C5	1	-0.15	12.011
12959	HCMM	881	MPD2	H	1	0.15	1.0079
12960	HCMM	881	MPD2	H1	1	0.15	1.0079
12961	HCMM	881	MPD2	H2	1	0.15	1.0079
12962	HCMM	881	MPD2	H3	1	0.15	1.0079
12963	NC=O	881	MPD2	N	1	-0.547	14.0067
12964	HNCO	881	MPD2	H5	1	0.37	1.0079
12965	NC=O	881	MPD2	N1	1	-0.547	14.0067
12966	HNCO	881	MPD2	H7	1	0.37	1.0079
12967	CB	882	MPD2	C	1	-0.15	12.011
12968	CB	882	MPD2	C1	1	0.117	12.011
12969	CB	882	MPD2	C2	1	-0.15	12.011
12970	CB	882	MPD2	C3	1	0.117	12.011
12971	CB	882	MPD2	C4	1	-0.15	12.011
12972	CB	882	MPD2	C5	1	-0.15	12.011
12973	HCMM	882	MPD2	H	1	0.15	1.0079
12974	HCMM	882	MPD2	H1	1	0.15	1.0079
12975	HCMM	882	MPD2	H2	1	0.15	1.0079
12976	HCMM	882	MPD2	H3	1	0.15	1.0079
12977	NC=O	882	MPD2	N	1	-0.547	14.0067
12978	HNCO	882	MPD2	H5	1	0.37	1.0079
12979	NC=O	882	MPD2	N1	1	-0.547	14.0067
12980	HNCO	882	MPD2	H7	1	0.37	1.0079
12981	CB	883	MPD2	C	1	-0.15	12.011
12982	CB	883	MPD2	C1	1	0.117	12.011
12983	CB	883	MPD2	C2	1	-0.15	12.011
12984	CB	883	MPD2	C3	1	0.117	12.011
12985	CB	883	MPD2	C4	1	-0.15	12.011
12986	CB	883	MPD2	C5	1	-0.15	12.011
12987	HCMM	883	MPD2	H	1	0.15	1.0079
12988	HCMM	883	MPD2	H1	1	0.15	1.0079
12989	HCMM	883	MPD2	H2	1	0.15	1.0079
12990	HCMM	883	MPD2	H3	1	0.15	1.0079
12991	NC=O	883	MPD2	N	1	-0.547	14.0067
12992	HNCO	883	MPD2	H5	1	0.37	1.0079
12993	NC=O	883	MPD2	N1	1	-0.547	14.0067
12994	HNCO	883	MPD2	H7	1	0.37	1.0079
12995	CB	884	MPD2	C	1	-0.15	12.011
12996	CB	884	MPD2	C1	1	0.117	12.011
12997	CB	884	MPD2	C2	1	-0.15	12.011
12998	CB	884	MPD2	C3	1	0.117	12.011
12999	CB	884	MPD2	C4	1	-0.15	12.011
13000	CB	884	MPD2	C5	1	-0.15	12.011
13001	HCMM	884	MPD2	H	1	0.15	1.0079
13002	HCMM	884	MPD2	H1	1	0.15	1.0079
13003	HCMM	884	MPD2	H2	1	0.15	1.0079
13004	HCMM	884	MPD2	H3	1	0.15	1.0079
13005	NC=O	884	MPD2	N	1	-0.547	14.0067
13006	HNCO	884	MPD2	H5	1	0.37	1.0079
13007	NC=O	884	MPD2	N1	1	-0.547	14.0067
13008	HNCO	884	MPD2	H7	1	0.37	1.0079
13009	CB	885	MPD2	C	1	-0.15	12.011
13010	CB	885	MPD2	C1	1	0.117	12.011
13011	CB	885	MPD2	C2	1	-0.15	12.011
13012	CB	885	MPD2	C3	1	0.117	12.011
13013	CB	885	MPD2	C4	1	-0.15	12.011
13014	CB	885	MPD2	C5	1	-0.15	12.011
13015	HCMM	885	MPD2	H	1	0.15	1.0079
13016	HCMM	885	MPD2	H1	1	0.15	1.0079
13017	HCMM	885	MPD2	H2	1	0.15	1.0079
13018	HCMM	885	MPD2	H3	1	0.15	1.0079
13019	NC=O	885	MPD2	N	1	-0.547	14.0067
13020	HNCO	885	MPD2	H5	1	0.37	1.0079
13021	NC=O	885	MPD2	N1	1	-0.547	14.0067
13022	HNCO	885	MPD2	H7	1	0.37	1.0079
13023	CB	886	MPD2	C	1	-0.15	12.011
13024	CB	886	MPD2	C1	1	0.117	12.011
13025	CB	886	MPD2	C2	1	-0.15	12.011
13026	CB	886	MPD2	C3	1	0.117	12.011
13027	CB	886	MPD2	C4	1	-0.15	12.011
13028	CB	886	MPD2	C5	1	-0.15	12.011
13029	HCMM	886	MPD2	H	1	0.15	1.0079
13030	HCMM	886	MPD2	H1	1	0.15	1.0079
13031	HCMM	886	MPD2	H2	1	0.15	1.0079
13032	HCMM	886	MPD2	H3	1	0.15	1.0079
13033	NC=O	886	MPD2	N	1	-0.547	14.0067
13034	HNCO	886	MPD2	H5	1	0.37	1.0079
13035	NC=O	886	MPD2	N1	1	-0.547	14.0067
13036	HNCO	886	MPD2	H7	1	0.37	1.0079
13037	CB	887	MPD2	C	1	-0.15	12.011
13038	CB	887	MPD2	C1	1	0.117	12.011
13039	CB	887	MPD2	C2	1	-0.15	12.011
13040	CB	887	MPD2	C3	1	0.117	12.011
13041	CB	887	MPD2	C4	1	-0.15	12.011
13042	CB	887	MPD2	C5	1	-0.15	12.011
13043	HCMM	887	MPD2	H	1	0.15	1.0079
13044	HCMM	887	MPD2	H1	1	0.15	1.0079
13045	HCMM	887	MPD2	H2	1	0.15	1.0079
13046	HCMM	887	MPD2	H3	1	0.15	1.0079
13047	NC=O	887	MPD2	N	1	-0.547	14.0067
13048	HNCO	887	MPD2	H5	1	0.37	1.0079
13049	NC=O	887	MPD2	N1	1	-0.547	14.0067
13050	HNCO	887	MPD2	H7	1	0.37	1.0079
13051	CB	888	MPD2	C	1	-0.15	12.011
13052	CB	888	MPD2	C1	1	0.117	12.011
13053	CB	888	MPD2	C2	1	-0.15	12.011
13054	CB	888	MPD2	C3	1	0.117	12.011
13055	CB	888	MPD2	C4	1	-0.15	12.011
13056	CB	888	MPD2	C5	1	-0.15	12.011
13057	HCMM	888	MPD2	H	1	0.15	1.0079
13058	HCMM	888	MPD2	H1	1	0.15	1.0079
13059	HCMM	888	MPD2	H2	1	0.15	1.0079
13060	HCMM	888	MPD2	H3	1	0.15	1.0079
13061	NC=O	888	MPD2	N	1	-0.547	14.0067
13062	HNCO	888	MPD2	H5	1	0.37	1.0079
13063	NC=O	888	MPD2	N1	1	-0.547	14.0067
13064	HNCO	888	MPD2	H7	1	0.37	1.0079
13065	CB	889	MPD2	C	1	-0.15	12.011
13066	CB	889	MPD2	C1	1	0.117	12.011
13067	CB	889	MPD2	C2	1	-0.15	12.011
13068	CB	889	MPD2	C3	1	0.117	12.011
13069	CB	889	MPD2	C4	1	-0.15	12.011
13070	CB	889	MPD2	C5	1	-0.15	12.011
13071	HCMM	889	MPD2	H	1	0.15	1.0079
13072	HCMM	889	MPD2	H1	1	0.15	1.0079
13073	HCMM	889	MPD2	H2	1	0.15	1.0079
13074	HCMM	889	MPD2	H3	1	0.15	1.0079
13075	NC=O	889	MPD2	N	1	-0.547	14.0067
13076	HNCO	889	MPD2	H5	1	0.37	1.0079
13077	NC=O	889	MPD2	N1	1	-0.547	14.0067
13078	HNCO	889	MPD2	H7	1	0.37	1.0079
13079	CB	890	MPD2	C	1	-0.15	12.011
13080	CB	890	MPD2	C1	1	0.117	12.011
13081	CB	890	MPD2	C2	1	-0.15	12.011
13082	CB	890	MPD2	C3	1	0.117	12.011
13083	CB	890	MPD2	C4	1	-0.15	12.011
13084	CB	890	MPD2	C5	1	-0.15	12.011
13085	HCMM	890	MPD2	H	1	0.15	1.0079
13086	HCMM	890	MPD2	H1	1	0.15	1.0079
13087	HCMM	890	MPD2	H2	1	0.15	1.0079
13088	HCMM	890	MPD2	H3	1	0.15	1.0079
13089	NC=O	890	MPD2	N	1	-0.547	14.0067
13090	HNCO	890	MPD2	H5	1	0.37	1.0079
13091	NC=O	890	MPD2	N1	1	-0.547	14.0067
13092	HNCO	890	MPD2	H7	1	0.37	1.0079
13093	CB	891	MPD2	C	1	-0.15	12.011
13094	CB	891	MPD2	C1	1	0.117	12.011
13095	CB	891	MPD2	C2	1	-0.15	12.011
13096	CB	891	MPD2	C3	1	0.117	12.011
13097	CB	891	MPD2	C4	1	-0.15	12.011
13098	CB	891	MPD2	C5	1	-0.15	12.011
13099	HCMM	891	MPD2	H	1	0.15	1.0079
13100	HCMM	891	MPD2	H1	1	0.15	1.0079
13101	HCMM	891	MPD2	H2	1	0.15	1.0079
13102	HCMM	891	MPD2	H3	1	0.15	1.0079
13103	NC=O	891	MPD2	N	1	-0.547	14.0067
13104	HNCO	891	MPD2	H5	1	0.37	1.0079
13105	NC=O	891	MPD2	N1	1	-0.547	14.0067
13106	HNCO	891	MPD2	H7	1	0.37	1.0079
13107	CB	892	MPD2	C	1	-0.15	12.011
13108	CB	892	MPD2	C1	1	0.117	12.011
13109	CB	892	MPD2	C2	1	-0.15	12.011
13110	CB	892	MPD2	C3	1	0.117	12.011
13111	CB	892	MPD2	C4	1	-0.15	12.011
13112	CB	892	MPD2	C5	1	-0.15	12.011
13113	HCMM	892	MPD2	H	1	0.15	1.0079
13114	HCMM	892	MPD2	H1	1	0.15	1.0079
13115	HCMM	892	MPD2	H2	1	0.15	1.0079
13116	HCMM	892	MPD2	H3	1	0.15	1.0079
13117	NC=O	892	MPD2	N	1	-0.547	14.0067
13118	HNCO	892	MPD2	H5	1	0.37	1.0079
13119	NC=O	892	MPD2	N1	1	-0.547	14.0067
13120	HNCO	892	MPD2	H7	1	0.37	1.0079
13121	CB	893	MPD2	C	1	-0.15	12.011
13122	CB	893	MPD2	C1	1	0.117	12.011
13123	CB	893	MPD2	C2	1	-0.15	12.011
13124	CB	893	MPD2	C3	1	0.117	12.011
13125	CB	893	MPD2	C4	1	-0.15	12.011
13126	CB	893	MPD2	C5	1	-0.15	12.011
13127	HCMM	893	MPD2	H	1	0.15	1.0079
13128	HCMM	893	MPD2	H1	1	0.15	1.0079
13129	HCMM	893	MPD2	H2	1	0.15	1.0079
13130	HCMM	893	MPD2	H3	1	0.15	1.0079
13131	NC=O	893	MPD2	N	1	-0.547	14.0067
13132	HNCO	893	MPD2	H5	1	0.37	1.0079
13133	NC=O	893	MPD2	N1	1	-0.547	14.0067
13134	HNCO	893	MPD2	H7	1	0.37	1.0079
13135	CB	894	MPD2	C	1	-0.15	12.011
13136	CB	894	MPD2	C1	1	0.117	12.011
13137	CB	894	MPD2	C2	1	-0.15	12.011
13138	CB	894	MPD2	C3	1	0.117	12.011
13139	CB	894	MPD2	C4	1	-0.15	12.011
13140	CB	894	MPD2	C5	1	-0.15	12.011
13141	HCMM	894	MPD2	H	1	0.15	1.0079
13142	HCMM	894	MPD2	H1	1	0.15	1.0079
13143	HCMM	894	MPD2	H2	1	0.15	1.0079
13144	HCMM	894	MPD2	H3	1	0.15	1.0079
13145	NC=O	894	MPD2	N	1	-0.547	14.0067
13146	HNCO	894	MPD2	H5	1	0.37	1.0079
13147	NC=O	894	MPD2	N1	1	-0.547	14.0067
13148	HNCO	894	MPD2	H7	1	0.37	1.0079
13149	CB	895	MPD2	C	1	-0.15	12.011
13150	CB	895	MPD2	C1	1	0.117	12.011
13151	CB	895	MPD2	C2	1	-0.15	12.011
13152	CB	895	MPD2	C3	1	0.117	12.011
13153	CB	895	MPD2	C4	1	-0.15	12.011
13154	CB	895	MPD2	C5	1	-0.15	12.011
13155	HCMM	895	MPD2	H	1	0.15	1.0079
13156	HCMM	895	MPD2	H1	1	0.15	1.0079
13157	HCMM	895	MPD2	H2	1	0.15	1.0079
13158	HCMM	895	MPD2	H3	1	0.15	1.0079
13159	NC=O	895	MPD2	N	1	-0.547	14.0067
13160	HNCO	895	MPD2	H5	1	0.37	1.0079
13161	NC=O	895	MPD2	N1	1	-0.547	14.0067
13162	HNCO	895	MPD2	H7	1	0.37	1.0079
13163	CB	896	MPD2	C	1	-0.15	12.011
13164	CB	896	MPD2	C1	1	0.117	12.011
13165	CB	896	MPD2	C2	1	-0.15	12.011
13166	CB	896	MPD2	C3	1	0.117	12.011
13167	CB	896	MPD2	C4	1	-0.15	12.011
13168	CB	896	MPD2	C5	1	-0.15	12.011
13169	HCMM	896	MPD2	H	1	0.15	1.0079
13170	HCMM	896	MPD2	H1	1	0.15	1.0079
13171	HCMM	896	MPD2	H2	1	0.15	1.0079
13172	HCMM	896	MPD2	H3	1	0.15	1.0079
13173	NC=O	896	MPD2	N	1	-0.547	14.0067
13174	HNCO	896	MPD2	H5	1	0.37	1.0079
13175	NC=O	896	MPD2	N1	1	-0.547	14.0067
13176	HNCO	896	MPD2	H7	1	0.37	1.0079
13177	CB	897	MPD2	C	1	-0.15	12.011
13178	CB	897	MPD2	C1	1	0.117	12.011
13179	CB	897	MPD2	C2	1	-0.15	12.011
13180	CB	897	MPD2	C3	1	0.117	12.011
13181	CB	897	MPD2	C4	1	-0.15	12.011
13182	CB	897	MPD2	C5	1	-0.15	12.011
13183	HCMM	897	MPD2	H	1	0.15	1.0079
13184	HCMM	897	MPD2	H1	1	0.15	1.0079
13185	HCMM	897	MPD2	H2	1	0.15	1.0079
13186	HCMM	897	MPD2	H3	1	0.15	1.0079
13187	NC=O	897	MPD2	N	1	-0.547	14.0067
13188	HNCO	897	MPD2	H5	1	0.37	1.0079
13189	NC=O	897	MPD2	N1	1	-0.547	14.0067
13190	HNCO	897	MPD2	H7	1	0.37	1.0079
13191	CB	898	MPD2	C	1	-0.15	12.011
13192	CB	898	MPD2	C1	1	0.117	12.011
13193	CB	898	MPD2	C2	1	-0.15	12.011
13194	CB	898	MPD2	C3	1	0.117	12.011
13195	CB	898	MPD2	C4	1	-0.15	12.011
13196	CB	898	MPD2	C5	1	-0.15	12.011
13197	HCMM	898	MPD2	H	1	0.15	1.0079
13198	HCMM	898	MPD2	H1	1	0.15	1.0079
13199	HCMM	898	MPD2	H2	1	0.15	1.0079
13200	HCMM	898	MPD2	H3	1	0.15	1.0079
13201	NC=O	898	MPD2	N	1	-0.547	14.0067
13202	HNCO	898	MPD2	H5	1	0.37	1.0079
13203	NC=O	898	MPD2	N1	1	-0.547	14.0067
13204	HNCO	898	MPD2	H7	1	0.37	1.0079
13205	CB	899	MPD2	C	1	-0.15	12.011
13206	CB	899	MPD2	C1	1	0.117	12.011
13207	CB	899	MPD2	C2	1	-0.15	12.011
13208	CB	899	MPD2	C3	1	0.117	12.011
13209	CB	899	MPD2	C4	1	-0.15	12.011
13210	CB	899	MPD2	C5	1	-0.15	12.011
13211	HCMM	899	MPD2	H	1	0.15	1.0079
13212	HCMM	899	MPD2	H1	1	0.15	1.0079
13213	HCMM	899	MPD2	H2	1	0.15	1.0079
13214	HCMM	899	MPD2	H3	1	0.15	1.0079
13215	NC=O	899	MPD2	N	1	-0.547	14.0067
13216	HNCO	899	MPD2	H5	1	0.37	1.0079
13217	NC=O	899	MPD2	N1	1	-0.547	14.0067
13218	HNCO	899	MPD2	H7	1	0.37	1.0079
13219	CB	900	MPD2	C	1	-0.15	12.011
13220	CB	900	MPD2	C1	1	0.117	12.011
13221	CB	900	MPD2	C2	1	-0.15	12.011
13222	CB	900	MPD2	C3	1	0.117	12.011
13223	CB	900	MPD2	C4	1	-0.15	12.011
13224	CB	900	MPD2	C5	1	-0.15	12.011
13225	HCMM	900	MPD2	H	1	0.15	1.0079
13226	HCMM	900	MPD2	H1	1	0.15	1.0079
13227	HCMM	900	MPD2	H2	1	0.15	1.0079
13228	HCMM	900	MPD2	H3	1	0.15	1.0079
13229	NC=O	900	MPD2	N	1	-0.547	14.0067
13230	HNCO	900	MPD2	H5	1	0.37	1.0079
13231	NC=O	900	MPD2	N1	1	-0.547	14.0067
13232	HNCO	900	MPD2	H7	1	0.37	1.0079
13233	CB	901	MPD2	C	1	-0.15	12.011
13234	CB	901	MPD2	C1	1	0.117	12.011
13235	CB	901	MPD2	C2	1	-0.15	12.011
13236	CB	901	MPD2	C3	1	0.117	12.011
13237	CB	901	MPD2	C4	1	-0.15	12.011
13238	CB	901	MPD2	C5	1	-0.15	12.011
13239	HCMM	901	MPD2	H	1	0.15	1.0079
13240	HCMM	901	MPD2	H1	1	0.15	1.0079
13241	HCMM	901	MPD2	H2	1	0.15	1.0079
13242	HCMM	901	MPD2	H3	1	0.15	1.0079
13243	NC=O	901	MPD2	N	1	-0.547	14.0067
13244	HNCO	901	MPD2	H5	1	0.37	1.0079
13245	NC=O	901	MPD2	N1	1	-0.547	14.0067
13246	HNCO	901	MPD2	H7	1	0.37	1.0079
13247	CB	902	MPD2	C	1	-0.15	12.011
13248	CB	902	MPD2	C1	1	0.117	12.011
13249	CB	902	MPD2	C2	1	-0.15	12.011
13250	CB	902	MPD2	C3	1	0.117	12.011
13251	CB	902	MPD2	C4	1	-0.15	12.011
13252	CB	902	MPD2	C5	1	-0.15	12.011
13253	HCMM	902	MPD2	H	1	0.15	1.0079
13254	HCMM	902	MPD2	H1	1	0.15	1.0079
13255	HCMM	902	MPD2	H2	1	0.15	1.0079
13256	HCMM	902	MPD2	H3	1	0.15	1.0079
13257	NC=O	902	MPD2	N	1	-0.547	14.0067
13258	HNCO	902	MPD2	H5	1	0.37	1.0079
13259	NC=O	902	MPD2	N1	1	-0.547	14.0067
13260	HNCO	902	MPD2	H7	1	0.37	1.0079
13261	CB	903	MPD2	C	1	-0.15	12.011
13262	CB	903	MPD2	C1	1	0.117	12.011
13263	CB	903	MPD2	C2	1	-0.15	12.011
13264	CB	903	MPD2	C3	1	0.117	12.011
13265	CB	903	MPD2	C4	1	-0.15	12.011
13266	CB	903	MPD2	C5	1	-0.15	12.011
13267	HCMM	903	MPD2	H	1	0.15	1.0079
13268	HCMM	903	MPD2	H1	1	0.15	1.0079
13269	HCMM	903	MPD2	H2	1	0.15	1.0079
13270	HCMM	903	MPD2	H3	1	0.15	1.0079
13271	NC=O	903	MPD2	N	1	-0.547	14.0067
13272	HNCO	903	MPD2	H5	1	0.37	1.0079
13273	NC=O	903	MPD2	N1	1	-0.547	14.0067
13274	HNCO	903	MPD2	H7	1	0.37	1.0079
13275	CB	904	MPD2	C	1	-0.15	12.011
13276	CB	904	MPD2	C1	1	0.117	12.011
13277	CB	904	MPD2	C2	1	-0.15	12.011
13278	CB	904	MPD2	C3	1	0.117	12.011
13279	CB	904	MPD2	C4	1	-0.15	12.011
13280	CB	904	MPD2	C5	1	-0.15	12.011
13281	HCMM	904	MPD2	H	1	0.15	1.0079
13282	HCMM	904	MPD2	H1	1	0.15	1.0079
13283	HCMM	904	MPD2	H2	1	0.15	1.0079
13284	HCMM	904	MPD2	H3	1	0.15	1.0079
13285	NC=O	904	MPD2	N	1	-0.547	14.0067
13286	HNCO	904	MPD2	H5	1	0.37	1.0079
13287	NC=O	904	MPD2	N1	1	-0.547	14.0067
13288	HNCO	904	MPD2	H7	1	0.37	1.0079
13289	CB	905	MPD2	C	1	-0.15	12.011
13290	CB	905	MPD2	C1	1	0.117	12.011
13291	CB	905	MPD2	C2	1	-0.15	12.011
13292	CB	905	MPD2	C3	1	0.117	12.011
13293	CB	905	MPD2	C4	1	-0.15	12.011
13294	CB	905	MPD2	C5	1	-0.15	12.011
13295	HCMM	905	MPD2	H	1	0.15	1.0079
13296	HCMM	905	MPD2	H1	1	0.15	1.0079
13297	HCMM	905	MPD2	H2	1	0.15	1.0079
13298	HCMM	905	MPD2	H3	1	0.15	1.0079
13299	NC=O	905	MPD2	N	1	-0.547	14.0067
13300	HNCO	905	MPD2	H5	1	0.37	1.0079
13301	NC=O	905	MPD2	N1	1	-0.547	14.0067
13302	HNCO	905	MPD2	H7	1	0.37	1.0079
13303	CB	906	MPD2	C	1	-0.15	12.011
13304	CB	906	MPD2	C1	1	0.117	12.011
13305	CB	906	MPD2	C2	1	-0.15	12.011
13306	CB	906	MPD2	C3	1	0.117	12.011
13307	CB	906	MPD2	C4	1	-0.15	12.011
13308	CB	906	MPD2	C5	1	-0.15	12.011
13309	HCMM	906	MPD2	H	1	0.15	1.0079
13310	HCMM	906	MPD2	H1	1	0.15	1.0079
13311	HCMM	906	MPD2	H2	1	0.15	1.0079
13312	HCMM	906	MPD2	H3	1	0.15	1.0079
13313	NC=O	906	MPD2	N	1	-0.547	14.0067
13314	HNCO	906	MPD2	H5	1	0.37	1.0079
13315	NC=O	906	MPD2	N1	1	-0.547	14.0067
13316	HNCO	906	MPD2	H7	1	0.37	1.0079
13317	CB	907	MPD2	C	1	-0.15	12.011
13318	CB	907	MPD2	C1	1	0.117	12.011
13319	CB	907	MPD2	C2	1	-0.15	12.011
13320	CB	907	MPD2	C3	1	0.117	12.011
13321	CB	907	MPD2	C4	1	-0.15	12.011
13322	CB	907	MPD2	C5	1	-0.15	12.011
13323	HCMM	907	MPD2	H	1	0.15	1.0079
13324	HCMM	907	MPD2	H1	1	0.15	1.0079
13325	HCMM	907	MPD2	H2	1	0.15	1.0079
13326	HCMM	907	MPD2	H3	1	0.15	1.0079
13327	NC=O	907	MPD2	N	1	-0.547	14.0067
13328	HNCO	907	MPD2	H5	1	0.37	1.0079
13329	NC=O	907	MPD2	N1	1	-0.547	14.0067
13330	HNCO	907	MPD2	H7	1	0.37	1.0079
13331	CB	908	MPD2	C	1	-0.15	12.011
13332	CB	908	MPD2	C1	1	0.117	12.011
13333	CB	908	MPD2	C2	1	-0.15	12.011
13334	CB	908	MPD2	C3	1	0.117	12.011
13335	CB	908	MPD2	C4	1	-0.15	12.011
13336	CB	908	MPD2	C5	1	-0.15	12.011
13337	HCMM	908	MPD2	H	1	0.15	1.0079
13338	HCMM	908	MPD2	H1	1	0.15	1.0079
13339	HCMM	908	MPD2	H2	1	0.15	1.0079
13340	HCMM	908	MPD2	H3	1	0.15	1.0079
13341	NC=O	908	MPD2	N	1	-0.547	14.0067
13342	HNCO	908	MPD2	H5	1	0.37	1.0079
13343	NC=O	908	MPD2	N1	1	-0.547	14.0067
13344	HNCO	908	MPD2	H7	1	0.37	1.0079
13345	CB	909	MPD2	C	1	-0.15	12.011
13346	CB	909	MPD2	C1	1	0.117	12.011
13347	CB	909	MPD2	C2	1	-0.15	12.011
13348	CB	909	MPD2	C3	1	0.117	12.011
13349	CB	909	MPD2	C4	1	-0.15	12.011
13350	CB	909	MPD2	C5	1	-0.15	12.011
13351	HCMM	909	MPD2	H	1	0.15	1.0079
13352	HCMM	909	MPD2	H1	1	0.15	1.0079
13353	HCMM	909	MPD2	H2	1	0.15	1.0079
13354	HCMM	909	MPD2	H3	1	0.15	1.0079
13355	NC=O	909	MPD2	N	1	-0.547	14.0067
13356	HNCO	909	MPD2	H5	1	0.37	1.0079
13357	NC=O	909	MPD2	N1	1	-0.547	14.0067
13358	HNCO	909	MPD2	H7	1	0.37	1.0079
13359	CB	910	MPD2	C	1	-0.15	12.011
13360	CB	910	MPD2	C1	1	0.117	12.011
13361	CB	910	MPD2	C2	1	-0.15	12.011
13362	CB	910	MPD2	C3	1	0.117	12.011
13363	CB	910	MPD2	C4	1	-0.15	12.011
13364	CB	910	MPD2	C5	1	-0.15	12.011
13365	HCMM	910	MPD2	H	1	0.15	1.0079
13366	HCMM	910	MPD2	H1	1	0.15	1.0079
13367	HCMM	910	MPD2	H2	1	0.15	1.0079
13368	HCMM	910	MPD2	H3	1	0.15	1.0079
13369	NC=O	910	MPD2	N	1	-0.547	14.0067
13370	HNCO	910	MPD2	H5	1	0.37	1.0079
13371	NC=O	910	MPD2	N1	1	-0.547	14.0067
13372	HNCO	910	MPD2	H7	1	0.37	1.0079
13373	CB	911	MPD2	C	1	-0.15	12.011
13374	CB	911	MPD2	C1	1	0.117	12.011
13375	CB	911	MPD2	C2	1	-0.15	12.011
13376	CB	911	MPD2	C3	1	0.117	12.011
13377	CB	911	MPD2	C4	1	-0.15	12.011
13378	CB	911	MPD2	C5	1	-0.15	12.011
13379	HCMM	911	MPD2	H	1	0.15	1.0079
13380	HCMM	911	MPD2	H1	1	0.15	1.0079
13381	HCMM	911	MPD2	H2	1	0.15	1.0079
13382	HCMM	911	MPD2	H3	1	0.15	1.0079
13383	NC=O	911	MPD2	N	1	-0.547	14.0067
13384	HNCO	911	MPD2	H5	1	0.37	1.0079
13385	NC=O	911	MPD2	N1	1	-0.547	14.0067
13386	HNCO	911	MPD2	H7	1	0.37	1.0079
13387	CB	912	MPD2	C	1	-0.15	12.011
13388	CB	912	MPD2	C1	1	0.117	12.011
13389	CB	912	MPD2	C2	1	-0.15	12.011
13390	CB	912	MPD2	C3	1	0.117	12.011
13391	CB	912	MPD2	C4	1	-0.15	12.011
13392	CB	912	MPD2	C5	1	-0.15	12.011
13393	HCMM	912	MPD2	H	1	0.15	1.0079
13394	HCMM	912	MPD2	H1	1	0.15	1.0079
13395	HCMM	912	MPD2	H2	1	0.15	1.0079
13396	HCMM	912	MPD2	H3	1	0.15	1.0079
13397	NC=O	912	MPD2	N	1	-0.547	14.0067
13398	HNCO	912	MPD2	H5	1	0.37	1.0079
13399	NC=O	912	MPD2	N1	1	-0.547	14.0067
13400	HNCO	912	MPD2	H7	1	0.37	1.0079
13401	CB	913	MPD2	C	1	-0.15	12.011
13402	CB	913	MPD2	C1	1	0.117	12.011
13403	CB	913	MPD2	C2	1	-0.15	12.011
13404	CB	913	MPD2	C3	1	0.117	12.011
13405	CB	913	MPD2	C4	1	-0.15	12.011
13406	CB	913	MPD2	C5	1	-0.15	12.011
13407	HCMM	913	MPD2	H	1	0.15	1.0079
13408	HCMM	913	MPD2	H1	1	0.15	1.0079
13409	HCMM	913	MPD2	H2	1	0.15	1.0079
13410	HCMM	913	MPD2	H3	1	0.15	1.0079
13411	NC=O	913	MPD2	N	1	-0.547	14.0067
13412	HNCO	913	MPD2	H5	1	0.37	1.0079
13413	NC=O	913	MPD2	N1	1	-0.547	14.0067
13414	HNCO	913	MPD2	H7	1	0.37	1.0079
13415	CB	914	MPD2	C	1	-0.15	12.011
13416	CB	914	MPD2	C1	1	0.117	12.011
13417	CB	914	MPD2	C2	1	-0.15	12.011
13418	CB	914	MPD2	C3	1	0.117	12.011
13419	CB	914	MPD2	C4	1	-0.15	12.011
13420	CB	914	MPD2	C5	1	-0.15	12.011
13421	HCMM	914	MPD2	H	1	0.15	1.0079
13422	HCMM	914	MPD2	H1	1	0.15	1.0079
13423	HCMM	914	MPD2	H2	1	0.15	1.0079
13424	HCMM	914	MPD2	H3	1	0.15	1.0079
13425	NC=O	914	MPD2	N	1	-0.547	14.0067
13426	HNCO	914	MPD2	H5	1	0.37	1.0079
13427	NC=O	914	MPD2	N1	1	-0.547	14.0067
13428	HNCO	914	MPD2	H7	1	0.37	1.0079
13429	CB	915	MPD2	C	1	-0.15	12.011
13430	CB	915	MPD2	C1	1	0.117	12.011
13431	CB	915	MPD2	C2	1	-0.15	12.011
13432	CB	915	MPD2	C3	1	0.117	12.011
13433	CB	915	MPD2	C4	1	-0.15	12.011
13434	CB	915	MPD2	C5	1	-0.15	12.011
13435	HCMM	915	MPD2	H	1	0.15	1.0079
13436	HCMM	915	MPD2	H1	1	0.15	1.0079
13437	HCMM	915	MPD2	H2	1	0.15	1.0079
13438	HCMM	915	MPD2	H3	1	0.15	1.0079
13439	NC=O	915	MPD2	N	1	-0.547	14.0067
13440	HNCO	915	MPD2	H5	1	0.37	1.0079
13441	NC=O	915	MPD2	N1	1	-0.547	14.0067
13442	HNCO	915	MPD2	H7	1	0.37	1.0079
13443	CB	916	MPD2	C	1	-0.15	12.011
13444	CB	916	MPD2	C1	1	0.117	12.011
13445	CB	916	MPD2	C2	1	-0.15	12.011
13446	CB	916	MPD2	C3	1	0.117	12.011
13447	CB	916	MPD2	C4	1	-0.15	12.011
13448	CB	916	MPD2	C5	1	-0.15	12.011
13449	HCMM	916	MPD2	H	1	0.15	1.0079
13450	HCMM	916	MPD2	H1	1	0.15	1.0079
13451	HCMM	916	MPD2	H2	1	0.15	1.0079
13452	HCMM	916	MPD2	H3	1	0.15	1.0079
13453	NC=O	916	MPD2	N	1	-0.547	14.0067
13454	HNCO	916	MPD2	H5	1	0.37	1.0079
13455	NC=O	916	MPD2	N1	1	-0.547	14.0067
13456	HNCO	916	MPD2	H7	1	0.37	1.0079
13457	CB	917	MPD2	C	1	-0.15	12.011
13458	CB	917	MPD2	C1	1	0.117	12.011
13459	CB	917	MPD2	C2	1	-0.15	12.011
13460	CB	917	MPD2	C3	1	0.117	12.011
13461	CB	917	MPD2	C4	1	-0.15	12.011
13462	CB	917	MPD2	C5	1	-0.15	12.011
13463	HCMM	917	MPD2	H	1	0.15	1.0079
13464	HCMM	917	MPD2	H1	1	0.15	1.0079
13465	HCMM	917	MPD2	H2	1	0.15	1.0079
13466	HCMM	917	MPD2	H3	1	0.15	1.0079
13467	NC=O	917	MPD2	N	1	-0.547	14.0067
13468	HNCO	917	MPD2	H5	1	0.37	1.0079
13469	NC=O	917	MPD2	N1	1	-0.547	14.0067
13470	HNCO	917	MPD2	H7	1	0.37	1.0079
13471	CB	918	MPD2	C	1	-0.15	12.011
13472	CB	918	MPD2	C1	1	0.117	12.011
13473	CB	918	MPD2	C2	1	-0.15	12.011
13474	CB	918	MPD2	C3	1	0.117	12.011
13475	CB	918	MPD2	C4	1	-0.15	12.011
13476	CB	918	MPD2	C5	1	-0.15	12.011
13477	HCMM	918	MPD2	H	1	0.15	1.0079
13478	HCMM	918	MPD2	H1	1	0.15	1.0079
13479	HCMM	918	MPD2	H2	1	0.15	1.0079
13480	HCMM	918	MPD2	H3	1	0.15	1.0079
13481	NC=O	918	MPD2	N	1	-0.547	14.0067
13482	HNCO	918	MPD2	H5	1	0.37	1.0079
13483	NC=O	918	MPD2	N1	1	-0.547	14.0067
13484	HNCO	918	MPD2	H7	1	0.37	1.0079
13485	CB	919	MPD2	C	1	-0.15	12.011
13486	CB	919	MPD2	C1	1	0.117	12.011
13487	CB	919	MPD2	C2	1	-0.15	12.011
13488	CB	919	MPD2	C3	1	0.117	12.011
13489	CB	919	MPD2	C4	1	-0.15	12.011
13490	CB	919	MPD2	C5	1	-0.15	12.011
13491	HCMM	919	MPD2	H	1	0.15	1.0079
13492	HCMM	919	MPD2	H1	1	0.15	1.0079
13493	HCMM	919	MPD2	H2	1	0.15	1.0079
13494	HCMM	919	MPD2	H3	1	0.15	1.0079
13495	NC=O	919	MPD2	N	1	-0.547	14.0067
13496	HNCO	919	MPD2	H5	1	0.37	1.0079
13497	NC=O	919	MPD2	N1	1	-0.547	14.0067
13498	HNCO	919	MPD2	H7	1	0.37	1.0079
13499	CB	920	MPD2	C	1	-0.15	12.011
13500	CB	920	MPD2	C1	1	0.117	12.011
13501	CB	920	MPD2	C2	1	-0.15	12.011
13502	CB	920	MPD2	C3	1	0.117	12.011
13503	CB	920	MPD2	C4	1	-0.15	12.011
13504	CB	920	MPD2	C5	1	-0.15	12.011
13505	HCMM	920	MPD2	H	1	0.15	1.0079
13506	HCMM	920	MPD2	H1	1	0.15	1.0079
13507	HCMM	920	MPD2	H2	1	0.15	1.0079
13508	HCMM	920	MPD2	H3	1	0.15	1.0079
13509	NC=O	920	MPD2	N	1	-0.547	14.0067
13510	HNCO	920	MPD2	H5	1	0.37	1.0079
13511	NC=O	920	MPD2	N1	1	-0.547	14.0067
13512	HNCO	920	MPD2	H7	1	0.37	1.0079
13513	CB	921	MPD2	C	1	-0.15	12.011
13514	CB	921	MPD2	C1	1	0.117	12.011
13515	CB	921	MPD2	C2	1	-0.15	12.011
13516	CB	921	MPD2	C3	1	0.117	12.011
13517	CB	921	MPD2	C4	1	-0.15	12.011
13518	CB	921	MPD2	C5	1	-0.15	12.011
13519	HCMM	921	MPD2	H	1	0.15	1.0079
13520	HCMM	921	MPD2	H1	1	0.15	1.0079
13521	HCMM	921	MPD2	H2	1	0.15	1.0079
13522	HCMM	921	MPD2	H3	1	0.15	1.0079
13523	NC=O	921	MPD2	N	1	-0.547	14.0067
13524	HNCO	921	MPD2	H5	1	0.37	1.0079
13525	NC=O	921	MPD2	N1	1	-0.547	14.0067
13526	HNCO	921	MPD2	H7	1	0.37	1.0079
13527	CB	922	MPD2	C	1	-0.15	12.011
13528	CB	922	MPD2	C1	1	0.117	12.011
13529	CB	922	MPD2	C2	1	-0.15	12.011
13530	CB	922	MPD2	C3	1	0.117	12.011
13531	CB	922	MPD2	C4	1	-0.15	12.011
13532	CB	922	MPD2	C5	1	-0.15	12.011
13533	HCMM	922	MPD2	H	1	0.15	1.0079
13534	HCMM	922	MPD2	H1	1	0.15	1.0079
13535	HCMM	922	MPD2	H2	1	0.15	1.0079
13536	HCMM	922	MPD2	H3	1	0.15	1.0079
13537	NC=O	922	MPD2	N	1	-0.547	14.0067
13538	HNCO	922	MPD2	H5	1	0.37	1.0079
13539	NC=O	922	MPD2	N1	1	-0.547	14.0067
13540	HNCO	922	MPD2	H7	1	0.37	1.0079
13541	CB	923	MPD2	C	1	-0.15	12.011
13542	CB	923	MPD2	C1	1	0.117	12.011
13543	CB	923	MPD2	C2	1	-0.15	12.011
13544	CB	923	MPD2	C3	1	0.117	12.011
13545	CB	923	MPD2	C4	1	-0.15	12.011
13546	CB	923	MPD2	C5	1	-0.15	12.011
13547	HCMM	923	MPD2	H	1	0.15	1.0079
13548	HCMM	923	MPD2	H1	1	0.15	1.0079
13549	HCMM	923	MPD2	H2	1	0.15	1.0079
13550	HCMM	923	MPD2	H3	1	0.15	1.0079
13551	NC=O	923	MPD2	N	1	-0.547	14.0067
13552	HNCO	923	MPD2	H5	1	0.37	1.0079
13553	NC=O	923	MPD2	N1	1	-0.547	14.0067
13554	HNCO	923	MPD2	H7	1	0.37	1.0079
13555	CB	924	MPD2	C	1	-0.15	12.011
13556	CB	924	MPD2	C1	1	0.117	12.011
13557	CB	924	MPD2	C2	1	-0.15	12.011
13558	CB	924	MPD2	C3	1	0.117	12.011
13559	CB	924	MPD2	C4	1	-0.15	12.011
13560	CB	924	MPD2	C5	1	-0.15	12.011
13561	HCMM	924	MPD2	H	1	0.15	1.0079
13562	HCMM	924	MPD2	H1	1	0.15	1.0079
13563	HCMM	924	MPD2	H2	1	0.15	1.0079
13564	HCMM	924	MPD2	H3	1	0.15	1.0079
13565	NC=O	924	MPD2	N	1	-0.547	14.0067
13566	HNCO	924	MPD2	H5	1	0.37	1.0079
13567	NC=O	924	MPD2	N1	1	-0.547	14.0067
13568	HNCO	924	MPD2	H7	1	0.37	1.0079
13569	CB	925	MPD2	C	1	-0.15	12.011
13570	CB	925	MPD2	C1	1	0.117	12.011
13571	CB	925	MPD2	C2	1	-0.15	12.011
13572	CB	925	MPD2	C3	1	0.117	12.011
13573	CB	925	MPD2	C4	1	-0.15	12.011
13574	CB	925	MPD2	C5	1	-0.15	12.011
13575	HCMM	925	MPD2	H	1	0.15	1.0079
13576	HCMM	925	MPD2	H1	1	0.15	1.0079
13577	HCMM	925	MPD2	H2	1	0.15	1.0079
13578	HCMM	925	MPD2	H3	1	0.15	1.0079
13579	NC=O	925	MPD2	N	1	-0.547	14.0067
13580	HNCO	925	MPD2	H5	1	0.37	1.0079
13581	NC=O	925	MPD2	N1	1	-0.547	14.0067
13582	HNCO	925	MPD2	H7	1	0.37	1.0079
13583	CB	926	MPD2	C	1	-0.15	12.011
13584	CB	926	MPD2	C1	1	0.117	12.011
13585	CB	926	MPD2	C2	1	-0.15	12.011
13586	CB	926	MPD2	C3	1	0.117	12.011
13587	CB	926	MPD2	C4	1	-0.15	12.011
13588	CB	926	MPD2	C5	1	-0.15	12.011
13589	HCMM	926	MPD2	H	1	0.15	1.0079
13590	HCMM	926	MPD2	H1	1	0.15	1.0079
13591	HCMM	926	MPD2	H2	1	0.15	1.0079
13592	HCMM	926	MPD2	H3	1	0.15	1.0079
13593	NC=O	926	MPD2	N	1	-0.547	14.0067
13594	HNCO	926	MPD2	H5	1	0.37	1.0079
13595	NC=O	926	MPD2	N1	1	-0.547	14.0067
13596	HNCO	926	MPD2	H7	1	0.37	1.0079
13597	CB	927	MPD2	C	1	-0.15	12.011
13598	CB	927	MPD2	C1	1	0.117	12.011
13599	CB	927	MPD2	C2	1	-0.15	12.011
13600	CB	927	MPD2	C3	1	0.117	12.011
13601	CB	927	MPD2	C4	1	-0.15	12.011
13602	CB	927	MPD2	C5	1	-0.15	12.011
13603	HCMM	927	MPD2	H	1	0.15	1.0079
13604	HCMM	927	MPD2	H1	1	0.15	1.0079
13605	HCMM	927	MPD2	H2	1	0.15	1.0079
13606	HCMM	927	MPD2	H3	1	0.15	1.0079
13607	NC=O	927	MPD2	N	1	-0.547	14.0067
13608	HNCO	927	MPD2	H5	1	0.37	1.0079
13609	NC=O	927	MPD2	N1	1	-0.547	14.0067
13610	HNCO	927	MPD2	H7	1	0.37	1.0079
13611	CB	928	MPD2	C	1	-0.15	12.011
13612	CB	928	MPD2	C1	1	0.117	12.011
13613	CB	928	MPD2	C2	1	-0.15	12.011
13614	CB	928	MPD2	C3	1	0.117	12.011
13615	CB	928	MPD2	C4	1	-0.15	12.011
13616	CB	928	MPD2	C5	1	-0.15	12.011
13617	HCMM	928	MPD2	H	1	0.15	1.0079
13618	HCMM	928	MPD2	H1	1	0.15	1.0079
13619	HCMM	928	MPD2	H2	1	0.15	1.0079
13620	HCMM	928	MPD2	H3	1	0.15	1.0079
13621	NC=O	928	MPD2	N	1	-0.547	14.0067
13622	HNCO	928	MPD2	H5	1	0.37	1.0079
13623	NC=O	928	MPD2	N1	1	-0.547	14.0067
13624	HNCO	928	MPD2	H7	1	0.37	1.0079
13625	CB	929	MPD2	C	1	-0.15	12.011
13626	CB	929	MPD2	C1	1	0.117	12.011
13627	CB	929	MPD2	C2	1	-0.15	12.011
13628	CB	929	MPD2	C3	1	0.117	12.011
13629	CB	929	MPD2	C4	1	-0.15	12.011
13630	CB	929	MPD2	C5	1	-0.15	12.011
13631	HCMM	929	MPD2	H	1	0.15	1.0079
13632	HCMM	929	MPD2	H1	1	0.15	1.0079
13633	HCMM	929	MPD2	H2	1	0.15	1.0079
13634	HCMM	929	MPD2	H3	1	0.15	1.0079
13635	NC=O	929	MPD2	N	1	-0.547	14.0067
13636	HNCO	929	MPD2	H5	1	0.37	1.0079
13637	NC=O	929	MPD2	N1	1	-0.547	14.0067
13638	HNCO	929	MPD2	H7	1	0.37	1.0079
13639	CB	930	MPD2	C	1	-0.15	12.011
13640	CB	930	MPD2	C1	1	0.117	12.011
13641	CB	930	MPD2	C2	1	-0.15	12.011
13642	CB	930	MPD2	C3	1	0.117	12.011
13643	CB	930	MPD2	C4	1	-0.15	12.011
13644	CB	930	MPD2	C5	1	-0.15	12.011
13645	HCMM	930	MPD2	H	1	0.15	1.0079
13646	HCMM	930	MPD2	H1	1	0.15	1.0079
13647	HCMM	930	MPD2	H2	1	0.15	1.0079
13648	HCMM	930	MPD2	H3	1	0.15	1.0079
13649	NC=O	930	MPD2	N	1	-0.547	14.0067
13650	HNCO	930	MPD2	H5	1	0.37	1.0079
13651	NC=O	930	MPD2	N1	1	-0.547	14.0067
13652	HNCO	930	MPD2	H7	1	0.37	1.0079
13653	CB	931	MPD2	C	1	-0.15	12.011
13654	CB	931	MPD2	C1	1	0.117	12.011
13655	CB	931	MPD2	C2	1	-0.15	12.011
13656	CB	931	MPD2	C3	1	0.117	12.011
13657	CB	931	MPD2	C4	1	-0.15	12.011
13658	CB	931	MPD2	C5	1	-0.15	12.011
13659	HCMM	931	MPD2	H	1	0.15	1.0079
13660	HCMM	931	MPD2	H1	1	0.15	1.0079
13661	HCMM	931	MPD2	H2	1	0.15	1.0079
13662	HCMM	931	MPD2	H3	1	0.15	1.0079
13663	NC=O	931	MPD2	N	1	-0.547	14.0067
13664	HNCO	931	MPD2	H5	1	0.37	1.0079
13665	NC=O	931	MPD2	N1	1	-0.547	14.0067
13666	HNCO	931	MPD2	H7	1	0.37	1.0079
13667	CB	932	MPD2	C	1	-0.15	12.011
13668	CB	932	MPD2	C1	1	0.117	12.011
13669	CB	932	MPD2	C2	1	-0.15	12.011
13670	CB	932	MPD2	C3	1	0.117	12.011
13671	CB	932	MPD2	C4	1	-0.15	12.011
13672	CB	932	MPD2	C5	1	-0.15	12.011
13673	HCMM	932	MPD2	H	1	0.15	1.0079
13674	HCMM	932	MPD2	H1	1	0.15	1.0079
13675	HCMM	932	MPD2	H2	1	0.15	1.0079
13676	HCMM	932	MPD2	H3	1	0.15	1.0079
13677	NC=O	932	MPD2	N	1	-0.547	14.0067
13678	HNCO	932	MPD2	H5	1	0.37	1.0079
13679	NC=O	932	MPD2	N1	1	-0.547	14.0067
13680	HNCO	932	MPD2	H7	1	0.37	1.0079
13681	CB	933	MPD2	C	1	-0.15	12.011
13682	CB	933	MPD2	C1	1	0.117	12.011
13683	CB	933	MPD2	C2	1	-0.15	12.011
13684	CB	933	MPD2	C3	1	0.117	12.011
13685	CB	933	MPD2	C4	1	-0.15	12.011
13686	CB	933	MPD2	C5	1	-0.15	12.011
13687	HCMM	933	MPD2	H	1	0.15	1.0079
13688	HCMM	933	MPD2	H1	1	0.15	1.0079
13689	HCMM	933	MPD2	H2	1	0.15	1.0079
13690	HCMM	933	MPD2	H3	1	0.15	1.0079
13691	NC=O	933	MPD2	N	1	-0.547	14.0067
13692	HNCO	933	MPD2	H5	1	0.37	1.0079
13693	NC=O	933	MPD2	N1	1	-0.547	14.0067
13694	HNCO	933	MPD2	H7	1	0.37	1.0079
13695	CB	934	MPD2	C	1	-0.15	12.011
13696	CB	934	MPD2	C1	1	0.117	12.011
13697	CB	934	MPD2	C2	1	-0.15	12.011
13698	CB	934	MPD2	C3	1	0.117	12.011
13699	CB	934	MPD2	C4	1	-0.15	12.011
13700	CB	934	MPD2	C5	1	-0.15	12.011
13701	HCMM	934	MPD2	H	1	0.15	1.0079
13702	HCMM	934	MPD2	H1	1	0.15	1.0079
13703	HCMM	934	MPD2	H2	1	0.15	1.0079
13704	HCMM	934	MPD2	H3	1	0.15	1.0079
13705	NC=O	934	MPD2	N	1	-0.547	14.0067
13706	HNCO	934	MPD2	H5	1	0.37	1.0079
13707	NC=O	934	MPD2	N1	1	-0.547	14.0067
13708	HNCO	934	MPD2	H7	1	0.37	1.0079
13709	CB	935	MPD2	C	1	-0.15	12.011
13710	CB	935	MPD2	C1	1	0.117	12.011
13711	CB	935	MPD2	C2	1	-0.15	12.011
13712	CB	935	MPD2	C3	1	0.117	12.011
13713	CB	935	MPD2	C4	1	-0.15	12.011
13714	CB	935	MPD2	C5	1	-0.15	12.011
13715	HCMM	935	MPD2	H	1	0.15	1.0079
13716	HCMM	935	MPD2	H1	1	0.15	1.0079
13717	HCMM	935	MPD2	H2	1	0.15	1.0079
13718	HCMM	935	MPD2	H3	1	0.15	1.0079
13719	NC=O	935	MPD2	N	1	-0.547	14.0067
13720	HNCO	935	MPD2	H5	1	0.37	1.0079
13721	NC=O	935	MPD2	N1	1	-0.547	14.0067
13722	HNCO	935	MPD2	H7	1	0.37	1.0079
13723	CB	936	MPD2	C	1	-0.15	12.011
13724	CB	936	MPD2	C1	1	0.117	12.011
13725	CB	936	MPD2	C2	1	-0.15	12.011
13726	CB	936	MPD2	C3	1	0.117	12.011
13727	CB	936	MPD2	C4	1	-0.15	12.011
13728	CB	936	MPD2	C5	1	-0.15	12.011
13729	HCMM	936	MPD2	H	1	0.15	1.0079
13730	HCMM	936	MPD2	H1	1	0.15	1.0079
13731	HCMM	936	MPD2	H2	1	0.15	1.0079
13732	HCMM	936	MPD2	H3	1	0.15	1.0079
13733	NC=O	936	MPD2	N	1	-0.547	14.0067
13734	HNCO	936	MPD2	H5	1	0.37	1.0079
13735	NC=O	936	MPD2	N1	1	-0.547	14.0067
13736	HNCO	936	MPD2	H7	1	0.37	1.0079
13737	CB	937	MPD2	C	1	-0.15	12.011
13738	CB	937	MPD2	C1	1	0.117	12.011
13739	CB	937	MPD2	C2	1	-0.15	12.011
13740	CB	937	MPD2	C3	1	0.117	12.011
13741	CB	937	MPD2	C4	1	-0.15	12.011
13742	CB	937	MPD2	C5	1	-0.15	12.011
13743	HCMM	937	MPD2	H	1	0.15	1.0079
13744	HCMM	937	MPD2	H1	1	0.15	1.0079
13745	HCMM	937	MPD2	H2	1	0.15	1.0079
13746	HCMM	937	MPD2	H3	1	0.15	1.0079
13747	NC=O	937	MPD2	N	1	-0.547	14.0067
13748	HNCO	937	MPD2	H5	1	0.37	1.0079
13749	NC=O	937	MPD2	N1	1	-0.547	14.0067
13750	HNCO	937	MPD2	H7	1	0.37	1.0079
13751	CB	938	MPD2	C	1	-0.15	12.011
13752	CB	938	MPD2	C1	1	0.117	12.011
13753	CB	938	MPD2	C2	1	-0.15	12.011
13754	CB	938	MPD2	C3	1	0.117	12.011
13755	CB	938	MPD2	C4	1	-0.15	12.011
13756	CB	938	MPD2	C5	1	-0.15	12.011
13757	HCMM	938	MPD2	H	1	0.15	1.0079
13758	HCMM	938	MPD2	H1	1	0.15	1.0079
13759	HCMM	938	MPD2	H2	1	0.15	1.0079
13760	HCMM	938	MPD2	H3	1	0.15	1.0079
13761	NC=O	938	MPD2	N	1	-0.547	14.0067
13762	HNCO	938	MPD2	H5	1	0.37	1.0079
13763	NC=O	938	MPD2	N1	1	-0.547	14.0067
13764	HNCO	938	MPD2	H7	1	0.37	1.0079
13765	CB	939	MPD2	C	1	-0.15	12.011
13766	CB	939	MPD2	C1	1	0.117	12.011
13767	CB	939	MPD2	C2	1	-0.15	12.011
13768	CB	939	MPD2	C3	1	0.117	12.011
13769	CB	939	MPD2	C4	1	-0.15	12.011
13770	CB	939	MPD2	C5	1	-0.15	12.011
13771	HCMM	939	MPD2	H	1	0.15	1.0079
13772	HCMM	939	MPD2	H1	1	0.15	1.0079
13773	HCMM	939	MPD2	H2	1	0.15	1.0079
13774	HCMM	939	MPD2	H3	1	0.15	1.0079
13775	NC=O	939	MPD2	N	1	-0.547	14.0067
13776	HNCO	939	MPD2	H5	1	0.37	1.0079
13777	NC=O	939	MPD2	N1	1	-0.547	14.0067
13778	HNCO	939	MPD2	H7	1	0.37	1.0079
13779	CB	940	MPD2	C	1	-0.15	12.011
13780	CB	940	MPD2	C1	1	0.117	12.011
13781	CB	940	MPD2	C2	1	-0.15	12.011
13782	CB	940	MPD2	C3	1	0.117	12.011
13783	CB	940	MPD2	C4	1	-0.15	12.011
13784	CB	940	MPD2	C5	1	-0.15	12.011
13785	HCMM	940	MPD2	H	1	0.15	1.0079
13786	HCMM	940	MPD2	H1	1	0.15	1.0079
13787	HCMM	940	MPD2	H2	1	0.15	1.0079
13788	HCMM	940	MPD2	H3	1	0.15	1.0079
13789	NC=O	940	MPD2	N	1	-0.547	14.0067
13790	HNCO	940	MPD2	H5	1	0.37	1.0079
13791	NC=O	940	MPD2	N1	1	-0.547	14.0067
13792	HNCO	940	MPD2	H7	1	0.37	1.0079
13793	CB	941	MPD2	C	1	-0.15	12.011
13794	CB	941	MPD2	C1	1	0.117	12.011
13795	CB	941	MPD2	C2	1	-0.15	12.011
13796	CB	941	MPD2	C3	1	0.117	12.011
13797	CB	941	MPD2	C4	1	-0.15	12.011
13798	CB	941	MPD2	C5	1	-0.15	12.011
13799	HCMM	941	MPD2	H	1	0.15	1.0079
13800	HCMM	941	MPD2	H1	1	0.15	1.0079
13801	HCMM	941	MPD2	H2	1	0.15	1.0079
13802	HCMM	941	MPD2	H3	1	0.15	1.0079
13803	NC=O	941	MPD2	N	1	-0.547	14.0067
13804	HNCO	941	MPD2	H5	1	0.37	1.0079
13805	NC=O	941	MPD2	N1	1	-0.547	14.0067
13806	HNCO	941	MPD2	H7	1	0.37	1.0079
13807	CB	942	MPD2	C	1	-0.15	12.011
13808	CB	942	MPD2	C1	1	0.117	12.011
13809	CB	942	MPD2	C2	1	-0.15	12.011
13810	CB	942	MPD2	C3	1	0.117	12.011
13811	CB	942	MPD2	C4	1	-0.15	12.011
13812	CB	942	MPD2	C5	1	-0.15	12.011
13813	HCMM	942	MPD2	H	1	0.15	1.0079
13814	HCMM	942	MPD2	H1	1	0.15	1.0079
13815	HCMM	942	MPD2	H2	1	0.15	1.0079
13816	HCMM	942	MPD2	H3	1	0.15	1.0079
13817	NC=O	942	MPD2	N	1	-0.547	14.0067
13818	HNCO	942	MPD2	H5	1	0.37	1.0079
13819	NC=O	942	MPD2	N1	1	-0.547	14.0067
13820	HNCO	942	MPD2	H7	1	0.37	1.0079
13821	CB	943	MPD2	C	1	-0.15	12.011
13822	CB	943	MPD2	C1	1	0.117	12.011
13823	CB	943	MPD2	C2	1	-0.15	12.011
13824	CB	943	MPD2	C3	1	0.117	12.011
13825	CB	943	MPD2	C4	1	-0.15	12.011
13826	CB	943	MPD2	C5	1	-0.15	12.011
13827	HCMM	943	MPD2	H	1	0.15	1.0079
13828	HCMM	943	MPD2	H1	1	0.15	1.0079
13829	HCMM	943	MPD2	H2	1	0.15	1.0079
13830	HCMM	943	MPD2	H3	1	0.15	1.0079
13831	NC=O	943	MPD2	N	1	-0.547	14.0067
13832	HNCO	943	MPD2	H5	1	0.37	1.0079
13833	NC=O	943	MPD2	N1	1	-0.547	14.0067
13834	HNCO	943	MPD2	H7	1	0.37	1.0079
13835	CB	944	MPD2	C	1	-0.15	12.011
13836	CB	944	MPD2	C1	1	0.117	12.011
13837	CB	944	MPD2	C2	1	-0.15	12.011
13838	CB	944	MPD2	C3	1	0.117	12.011
13839	CB	944	MPD2	C4	1	-0.15	12.011
13840	CB	944	MPD2	C5	1	-0.15	12.011
13841	HCMM	944	MPD2	H	1	0.15	1.0079
13842	HCMM	944	MPD2	H1	1	0.15	1.0079
13843	HCMM	944	MPD2	H2	1	0.15	1.0079
13844	HCMM	944	MPD2	H3	1	0.15	1.0079
13845	NC=O	944	MPD2	N	1	-0.547	14.0067
13846	HNCO	944	MPD2	H5	1	0.37	1.0079
13847	NC=O	944	MPD2	N1	1	-0.547	14.0067
13848	HNCO	944	MPD2	H7	1	0.37	1.0079

[ bonds ]
5308	5319	1
5319	5320	1
5319	6370	1
5310	5317	1
5317	5318	1
5317	5327	1
5308	5309	1
5307	5308	1
5309	5310	1
5310	5311	1
5309	5313	1
5307	5312	1
5307	5315	1
5311	5312	1
5311	5314	1
5312	5316	1
4567	4578	1
4578	4579	1
4578	5333	1
4569	4576	1
4576	4577	1
4576	4586	1
4567	4568	1
4566	4567	1
4568	4569	1
4569	4570	1
4568	4572	1
4566	4571	1
4566	4574	1
4570	4571	1
4570	4573	1
4571	4575	1
9831	9842	1
9842	9843	1
9842	9850	1
9833	9840	1
9840	9841	1
9840	8732	1
9831	9832	1
9830	9831	1
9832	9833	1
9833	9834	1
9832	9836	1
9830	9835	1
9830	9838	1
9834	9835	1
9834	9837	1
9835	9839	1
5165	5172	1
5172	5173	1
5172	7739	1
5163	5174	1
5174	5175	1
5174	5182	1
5165	5164	1
5166	5165	1
5164	5163	1
5163	5162	1
5164	5168	1
5166	5167	1
5166	5169	1
5162	5167	1
5162	5170	1
5167	5171	1
1360	1371	1
1371	1372	1
1353	1371	1
1362	1369	1
1369	1370	1
1369	7228	1
1360	1361	1
1359	1360	1
1361	1362	1
1362	1363	1
1361	1365	1
1359	1364	1
1359	1367	1
1363	1364	1
1363	1366	1
1364	1368	1
11596	11607	1
11607	11608	1
11607	4591	1
11598	11605	1
11605	11606	1
11605	10002	1
11596	11597	1
11595	11596	1
11597	11598	1
11598	11599	1
11597	11601	1
11595	11600	1
11595	11603	1
11599	11600	1
11599	11602	1
11600	11604	1
2628	2635	1
2635	2636	1
2635	3953	1
2626	2637	1
2637	2638	1
2637	2639	1
2627	2628	1
2628	2629	1
2626	2627	1
2625	2626	1
2627	2631	1
2629	2630	1
2629	2632	1
2625	2630	1
2625	2633	1
2630	2634	1
802	813	1
813	814	1
813	4505	1
804	811	1
811	812	1
790	811	1
802	803	1
801	802	1
803	804	1
804	805	1
803	807	1
801	806	1
801	809	1
805	806	1
805	808	1
806	810	1
11117	11128	1
11128	11129	1
11128	4345	1
11119	11126	1
11126	11127	1
11126	11136	1
11117	11118	1
11116	11117	1
11118	11119	1
11119	11120	1
11118	11122	1
11116	11121	1
11116	11124	1
11120	11121	1
11120	11123	1
11121	11125	1
11542	11549	1
11549	11550	1
11549	4447	1
11540	11551	1
11551	11552	1
11551	7229	1
11542	11541	1
11543	11542	1
11541	11540	1
11540	11539	1
11541	11545	1
11543	11544	1
11543	11546	1
11539	11544	1
11539	11547	1
11544	11548	1
9860	9871	1
9871	9872	1
9871	5975	1
9862	9869	1
9869	9870	1
9869	9879	1
9860	9861	1
9859	9860	1
9861	9862	1
9862	9863	1
9861	9865	1
9859	9864	1
9859	9867	1
9863	9864	1
9863	9866	1
9864	9868	1
7191	7198	1
7198	7199	1
7198	10965	1
7189	7200	1
7200	7201	1
7200	7208	1
7190	7191	1
7191	7192	1
7189	7190	1
7188	7189	1
7190	7194	1
7192	7193	1
7192	7195	1
7188	7193	1
7188	7196	1
7193	7197	1
2838	2845	1
2845	2846	1
2845	5634	1
2836	2847	1
2847	2849	1
2847	2848	1
2837	2838	1
2838	2839	1
2836	2837	1
2835	2836	1
2837	2841	1
2839	2840	1
2839	2842	1
2835	2840	1
2835	2843	1
2840	2844	1
9509	9520	1
9520	9521	1
9520	9528	1
9511	9518	1
9518	9519	1
9518	5304	1
9509	9510	1
9508	9509	1
9510	9511	1
9511	9512	1
9510	9514	1
9508	9513	1
9508	9516	1
9512	9513	1
9512	9515	1
9513	9517	1
13696	13707	1
13707	13708	1
1537	13707	1
13698	13705	1
13705	13706	1
13705	10614	1
13696	13697	1
13695	13696	1
13697	13698	1
13698	13699	1
13697	13701	1
13695	13700	1
13695	13703	1
13699	13700	1
13699	13702	1
13700	13704	1
52	63	1
63	64	1
2537	63	1
54	61	1
61	62	1
42	61	1
52	53	1
51	52	1
53	54	1
54	55	1
53	57	1
51	56	1
51	59	1
55	56	1
55	58	1
56	60	1
9568	9579	1
9579	9580	1
9579	5478	1
9570	9577	1
9577	9578	1
9577	9587	1
9568	9569	1
9567	9568	1
9569	9570	1
9570	9571	1
9569	9573	1
9567	9572	1
9567	9575	1
9571	9572	1
9571	9574	1
9572	9576	1
4218	4229	1
4229	4230	1
4229	10380	1
4220	4227	1
4227	4228	1
4227	4237	1
4218	4219	1
4217	4218	1
4219	4220	1
4220	4221	1
4219	4223	1
4217	4222	1
4217	4225	1
4221	4222	1
4221	4224	1
4222	4226	1
11288	11299	1
11299	11300	1
11299	4039	1
11290	11297	1
11297	11298	1
11297	10439	1
11288	11289	1
11287	11288	1
11289	11290	1
11290	11291	1
11289	11293	1
11287	11292	1
11287	11295	1
11291	11292	1
11291	11294	1
11292	11296	1
12254	12265	1
12265	12266	1
12265	9754	1
12256	12263	1
12263	12264	1
12263	5742	1
12254	12255	1
12253	12254	1
12255	12256	1
12256	12257	1
12255	12259	1
12253	12258	1
12253	12261	1
12257	12258	1
12257	12260	1
12258	12262	1
11344	11355	1
11355	11356	1
11355	4127	1
11346	11353	1
11353	11354	1
11353	7855	1
11344	11345	1
11343	11344	1
11345	11346	1
11346	11347	1
11345	11349	1
11343	11348	1
11343	11351	1
11347	11348	1
11347	11350	1
11348	11352	1
8036	8043	1
8043	8044	1
8043	8053	1
8034	8045	1
8045	8046	1
8045	7156	1
8036	8035	1
8037	8036	1
8035	8034	1
8034	8033	1
8035	8039	1
8037	8038	1
8037	8040	1
8033	8038	1
8033	8041	1
8038	8042	1
9802	9813	1
9813	9814	1
9813	9821	1
9804	9811	1
9811	9812	1
9811	10374	1
9802	9803	1
9801	9802	1
9803	9804	1
9804	9805	1
9803	9807	1
9801	9806	1
9801	9809	1
9805	9806	1
9805	9808	1
9806	9810	1
13766	13777	1
13777	13778	1
1348	13777	1
13768	13775	1
13775	13776	1
1640	13775	1
13766	13767	1
13765	13766	1
13767	13768	1
13768	13769	1
13767	13771	1
13765	13770	1
13765	13773	1
13769	13770	1
13769	13772	1
13770	13774	1
8941	8952	1
8952	8953	1
8952	8960	1
8943	8950	1
8950	8951	1
8950	8527	1
8941	8942	1
8940	8941	1
8942	8943	1
8943	8944	1
8942	8946	1
8940	8945	1
8940	8948	1
8944	8945	1
8944	8947	1
8945	8949	1
10416	10423	1
10423	10424	1
10423	10433	1
10414	10425	1
10425	10426	1
10425	11069	1
10415	10416	1
10416	10417	1
10414	10415	1
10413	10414	1
10415	10419	1
10417	10418	1
10417	10420	1
10413	10418	1
10413	10421	1
10418	10422	1
4930	4941	1
4941	4942	1
4941	4949	1
4932	4939	1
4939	4940	1
4939	11068	1
4930	4931	1
4929	4930	1
4931	4932	1
4932	4933	1
4931	4935	1
4929	4934	1
4929	4937	1
4933	4934	1
4933	4936	1
4934	4938	1
3048	3055	1
3055	3056	1
3055	7433	1
3046	3057	1
3057	3058	1
3057	3059	1
3047	3048	1
3048	3049	1
3046	3047	1
3045	3046	1
3047	3051	1
3049	3050	1
3049	3052	1
3045	3050	1
3045	3053	1
3050	3054	1
10940	10951	1
10951	10952	1
10951	10365	1
10942	10949	1
10949	10950	1
10949	10959	1
10940	10941	1
10939	10940	1
10941	10942	1
10942	10943	1
10941	10945	1
10939	10944	1
10939	10947	1
10943	10944	1
10943	10946	1
10944	10948	1
11946	11957	1
11957	11958	1
2123	11957	1
11948	11955	1
11955	11956	1
11955	5158	1
11946	11947	1
11945	11946	1
11947	11948	1
11948	11949	1
11947	11951	1
11945	11950	1
11945	11953	1
11949	11950	1
11949	11952	1
11950	11954	1
8607	8614	1
8614	8615	1
8614	8624	1
8605	8616	1
8616	8617	1
8616	6049	1
8607	8606	1
8608	8607	1
8606	8605	1
8605	8604	1
8606	8610	1
8608	8609	1
8608	8611	1
8604	8609	1
8604	8612	1
8609	8613	1
3301	3312	1
3312	3314	1
3312	3313	1
3303	3310	1
3310	3311	1
3310	8975	1
3301	3302	1
3300	3301	1
3302	3303	1
3303	3304	1
3302	3306	1
3300	3305	1
3300	3308	1
3304	3305	1
3304	3307	1
3305	3309	1
3226	3237	1
3237	3239	1
3237	3238	1
3228	3235	1
3235	3236	1
3235	8566	1
3226	3227	1
3225	3226	1
3227	3228	1
3228	3229	1
3227	3231	1
3225	3230	1
3225	3233	1
3229	3230	1
3229	3232	1
3230	3234	1
2853	2860	1
2860	2861	1
2860	5639	1
2851	2862	1
2862	2863	1
2862	2864	1
2852	2853	1
2853	2854	1
2851	2852	1
2850	2851	1
2852	2856	1
2854	2855	1
2854	2857	1
2850	2855	1
2850	2858	1
2855	2859	1
13402	13413	1
13413	13414	1
13413	8571	1
13404	13411	1
13411	13412	1
13411	8426	1
13402	13403	1
13401	13402	1
13403	13404	1
13404	13405	1
13403	13407	1
13401	13406	1
13401	13409	1
13405	13406	1
13405	13408	1
13406	13410	1
3151	3162	1
3162	3163	1
3162	3164	1
3153	3160	1
3160	3161	1
3160	8132	1
3151	3152	1
3150	3151	1
3152	3153	1
3153	3154	1
3152	3156	1
3150	3155	1
3150	3158	1
3154	3155	1
3154	3157	1
3155	3159	1
2394	2405	1
2405	2406	1
2382	2405	1
2396	2403	1
2403	2404	1
2403	6048	1
2394	2395	1
2393	2394	1
2395	2396	1
2396	2397	1
2395	2399	1
2393	2398	1
2393	2401	1
2397	2398	1
2397	2400	1
2398	2402	1
10035	10046	1
10046	10047	1
10046	10054	1
10037	10044	1
10044	10045	1
10044	11063	1
10035	10036	1
10034	10035	1
10036	10037	1
10037	10038	1
10036	10040	1
10034	10039	1
10034	10042	1
10038	10039	1
10038	10041	1
10039	10043	1
5192	5203	1
5203	5204	1
5203	7374	1
5194	5201	1
5201	5202	1
5201	5211	1
5192	5193	1
5191	5192	1
5193	5194	1
5194	5195	1
5193	5197	1
5191	5196	1
5191	5199	1
5195	5196	1
5195	5198	1
5196	5200	1
11486	11493	1
11493	11494	1
547	11493	1
11484	11495	1
11495	11496	1
11495	4344	1
11485	11486	1
11486	11487	1
11484	11485	1
11483	11484	1
11485	11489	1
11487	11488	1
11487	11490	1
11483	11488	1
11483	11491	1
11488	11492	1
5032	5043	1
5043	5044	1
5043	5051	1
5034	5041	1
5041	5042	1
5041	8366	1
5032	5033	1
5031	5032	1
5033	5034	1
5034	5035	1
5033	5037	1
5031	5036	1
5031	5039	1
5035	5036	1
5035	5038	1
5036	5040	1
276	287	1
287	288	1
266	287	1
278	285	1
285	286	1
285	5917	1
276	277	1
275	276	1
277	278	1
278	279	1
277	281	1
275	280	1
275	283	1
279	280	1
279	282	1
280	284	1
11990	11997	1
11997	11998	1
918	11997	1
11988	11999	1
11999	12000	1
11999	5275	1
11989	11990	1
11990	11991	1
11988	11989	1
11987	11988	1
11989	11993	1
11991	11992	1
11991	11994	1
11987	11992	1
11987	11995	1
11992	11996	1
4189	4200	1
4200	4201	1
4200	4208	1
4191	4198	1
4198	4199	1
4198	7957	1
4189	4190	1
4188	4189	1
4190	4191	1
4191	4192	1
4190	4194	1
4188	4193	1
4188	4196	1
4192	4193	1
4192	4195	1
4193	4197	1
3676	3687	1
3687	3689	1
3687	3688	1
3678	3685	1
3685	3686	1
3685	10989	1
3676	3677	1
3675	3676	1
3677	3678	1
3678	3679	1
3677	3681	1
3675	3680	1
3675	3683	1
3679	3680	1
3679	3682	1
3680	3684	1
11274	11285	1
11285	11286	1
11285	4040	1
11276	11283	1
11283	11284	1
11283	11142	1
11274	11275	1
11273	11274	1
11275	11276	1
11276	11277	1
11275	11279	1
11273	11278	1
11273	11281	1
11277	11278	1
11277	11280	1
11278	11282	1
2716	2727	1
2727	2729	1
2727	2728	1
2718	2725	1
2725	2726	1
2725	4983	1
2716	2717	1
2715	2716	1
2717	2718	1
2718	2719	1
2717	2721	1
2715	2720	1
2715	2723	1
2719	2720	1
2719	2722	1
2720	2724	1
10238	10249	1
10249	10250	1
10249	10257	1
10240	10247	1
10247	10248	1
10247	10799	1
10238	10239	1
10237	10238	1
10239	10240	1
10240	10241	1
10239	10243	1
10237	10242	1
10237	10245	1
10241	10242	1
10241	10244	1
10242	10246	1
12366	12377	1
12377	12378	1
12377	10059	1
12368	12375	1
12375	12376	1
12375	5873	1
12366	12367	1
12365	12366	1
12367	12368	1
12368	12369	1
12367	12371	1
12365	12370	1
12365	12373	1
12369	12370	1
12369	12372	1
12370	12374	1
11680	11691	1
11691	11692	1
1165	11691	1
11682	11689	1
11689	11690	1
11689	4736	1
11680	11681	1
11679	11680	1
11681	11682	1
11682	11683	1
11681	11685	1
11679	11684	1
11679	11687	1
11683	11684	1
11683	11686	1
11684	11688	1
5105	5116	1
5116	5117	1
5116	9315	1
5107	5114	1
5114	5115	1
5114	5124	1
5105	5106	1
5104	5105	1
5106	5107	1
5107	5108	1
5106	5110	1
5104	5109	1
5104	5112	1
5108	5109	1
5108	5111	1
5109	5113	1
10311	10322	1
10322	10323	1
10322	7768	1
10313	10320	1
10320	10321	1
10320	10330	1
10311	10312	1
10310	10311	1
10312	10313	1
10313	10314	1
10312	10316	1
10310	10315	1
10310	10318	1
10314	10315	1
10314	10317	1
10315	10319	1
7612	7623	1
7623	7624	1
7623	7631	1
7614	7621	1
7621	7622	1
7621	10974	1
7612	7613	1
7611	7612	1
7613	7614	1
7614	7615	1
7613	7617	1
7611	7616	1
7611	7619	1
7615	7616	1
7615	7618	1
7616	7620	1
11190	11201	1
11201	11202	1
899	11201	1
11192	11199	1
11199	11200	1
11199	3851	1
11190	11191	1
11189	11190	1
11191	11192	1
11192	11193	1
11191	11195	1
11189	11194	1
11189	11197	1
11193	11194	1
11193	11196	1
11194	11198	1
9119	9126	1
9126	9127	1
9126	9476	1
9117	9128	1
9128	9129	1
9128	9136	1
9118	9119	1
9119	9120	1
9117	9118	1
9116	9117	1
9118	9122	1
9120	9121	1
9120	9123	1
9116	9121	1
9116	9124	1
9121	9125	1
556	563	1
563	564	1
542	563	1
554	565	1
565	566	1
565	5274	1
556	555	1
557	556	1
555	554	1
554	553	1
555	559	1
557	558	1
557	560	1
553	558	1
553	561	1
558	562	1
2973	2980	1
2980	2981	1
2980	6675	1
2971	2982	1
2982	2983	1
2982	2984	1
2972	2973	1
2973	2974	1
2971	2972	1
2970	2971	1
2972	2976	1
2974	2975	1
2974	2977	1
2970	2975	1
2970	2978	1
2975	2979	1
9088	9099	1
9099	9100	1
9099	10438	1
9090	9097	1
9097	9098	1
9097	9107	1
9088	9089	1
9087	9088	1
9089	9090	1
9090	9091	1
9089	9093	1
9087	9092	1
9087	9095	1
9091	9092	1
9091	9094	1
9092	9096	1
13500	13511	1
13511	13512	1
13511	9113	1
13502	13509	1
13509	13510	1
13509	8980	1
13500	13501	1
13499	13500	1
13501	13502	1
13502	13503	1
13501	13505	1
13499	13504	1
13499	13507	1
13503	13504	1
13503	13506	1
13504	13508	1
3408	3415	1
3415	3416	1
3415	9447	1
3406	3417	1
3417	3418	1
3417	3419	1
3407	3408	1
3408	3409	1
3406	3407	1
3405	3406	1
3407	3411	1
3409	3410	1
3409	3412	1
3405	3410	1
3405	3413	1
3410	3414	1
7961	7972	1
7972	7973	1
7972	6951	1
7963	7970	1
7970	7971	1
7970	7980	1
7961	7962	1
7960	7961	1
7962	7963	1
7963	7964	1
7962	7966	1
7960	7965	1
7960	7968	1
7964	7965	1
7964	7967	1
7965	7969	1
1063	1074	1
1074	1075	1
1076	1074	1
1065	1072	1
1072	1073	1
1072	5566	1
1063	1064	1
1062	1063	1
1064	1065	1
1065	1066	1
1064	1068	1
1062	1067	1
1062	1070	1
1066	1067	1
1066	1069	1
1067	1071	1
13486	13497	1
13497	13498	1
13497	10936	1
13488	13495	1
13495	13496	1
13495	8981	1
13486	13487	1
13485	13486	1
13487	13488	1
13488	13489	1
13487	13491	1
13485	13490	1
13485	13493	1
13489	13490	1
13489	13492	1
13490	13494	1
10677	10688	1
10688	10689	1
10688	3952	1
10679	10686	1
10686	10687	1
10686	10696	1
10677	10678	1
10676	10677	1
10678	10679	1
10679	10680	1
10678	10682	1
10676	10681	1
10676	10684	1
10680	10681	1
10680	10683	1
10681	10685	1
5600	5611	1
5611	5612	1
2449	5611	1
5602	5609	1
5609	5610	1
5609	5619	1
5600	5601	1
5599	5600	1
5601	5602	1
5602	5603	1
5601	5605	1
5599	5604	1
5599	5607	1
5603	5604	1
5603	5606	1
5604	5608	1
431	442	1
442	443	1
442	6335	1
433	440	1
440	441	1
419	440	1
431	432	1
430	431	1
432	433	1
433	434	1
432	436	1
430	435	1
430	438	1
434	435	1
434	437	1
435	439	1
7131	7142	1
7142	7143	1
7142	7150	1
7133	7140	1
7140	7141	1
7140	8600	1
7131	7132	1
7130	7131	1
7132	7133	1
7133	7134	1
7132	7136	1
7130	7135	1
7130	7138	1
7134	7135	1
7134	7137	1
7135	7139	1
678	689	1
689	690	1
689	10536	1
680	687	1
687	688	1
666	687	1
678	679	1
677	678	1
679	680	1
680	681	1
679	683	1
677	682	1
677	685	1
681	682	1
681	684	1
682	686	1
6679	6690	1
6690	6691	1
6690	8351	1
6681	6688	1
6688	6689	1
6688	6698	1
6679	6680	1
6678	6679	1
6680	6681	1
6681	6682	1
6680	6684	1
6678	6683	1
6678	6686	1
6682	6683	1
6682	6685	1
6683	6687	1
3468	3475	1
3475	3476	1
3475	9592	1
3466	3477	1
3477	3479	1
3477	3478	1
3467	3468	1
3468	3469	1
3466	3467	1
3465	3466	1
3467	3471	1
3469	3470	1
3469	3472	1
3465	3470	1
3465	3473	1
3470	3474	1
13038	13049	1
13049	13050	1
13049	7608	1
13040	13047	1
13047	13048	1
13047	10262	1
13038	13039	1
13037	13038	1
13039	13040	1
13040	13041	1
13039	13043	1
13037	13042	1
13037	13045	1
13041	13042	1
13041	13044	1
13042	13046	1
11400	11411	1
11411	11412	1
11411	7506	1
11402	11409	1
11409	11410	1
11409	4214	1
11400	11401	1
11399	11400	1
11401	11402	1
11402	11403	1
11401	11405	1
11399	11404	1
11399	11407	1
11403	11404	1
11403	11406	1
11404	11408	1
12744	12755	1
12755	12756	1
2542	12755	1
12746	12753	1
12753	12754	1
12753	6703	1
12744	12745	1
12743	12744	1
12745	12746	1
12746	12747	1
12745	12749	1
12743	12748	1
12743	12751	1
12747	12748	1
12747	12750	1
12748	12752	1
4015	4026	1
4026	4027	1
4026	6266	1
4017	4024	1
4024	4025	1
4024	4034	1
4015	4016	1
4014	4015	1
4016	4017	1
4017	4018	1
4016	4020	1
4014	4019	1
4014	4022	1
4018	4019	1
4018	4021	1
4019	4023	1
2285	2296	1
2296	2297	1
2298	2296	1
2287	2294	1
2294	2295	1
2294	10790	1
2285	2286	1
2284	2285	1
2286	2287	1
2287	2288	1
2286	2290	1
2284	2289	1
2284	2292	1
2288	2289	1
2288	2291	1
2289	2293	1
6621	6632	1
6632	6633	1
6632	6640	1
6623	6630	1
6630	6631	1
6630	8936	1
6621	6622	1
6620	6621	1
6622	6623	1
6623	6624	1
6622	6626	1
6620	6625	1
6620	6628	1
6624	6625	1
6624	6627	1
6625	6629	1
7539	7550	1
7550	7551	1
7550	7558	1
7541	7548	1
7548	7549	1
7548	4621	1
7539	7540	1
7538	7539	1
7540	7541	1
7541	7542	1
7540	7544	1
7538	7543	1
7538	7546	1
7542	7543	1
7542	7545	1
7543	7547	1
12800	12811	1
12811	12812	1
12811	6952	1
12802	12809	1
12809	12810	1
2511	12809	1
12800	12801	1
12799	12800	1
12801	12802	1
12802	12803	1
12801	12805	1
12799	12804	1
12799	12807	1
12803	12804	1
12803	12806	1
12804	12808	1
13010	13021	1
13021	13022	1
13021	9316	1
13012	13019	1
13019	13020	1
13019	7535	1
13010	13011	1
13009	13010	1
13011	13012	1
13012	13013	1
13011	13015	1
13009	13014	1
13009	13017	1
13013	13014	1
13013	13016	1
13014	13018	1
4422	4433	1
4433	4434	1
4433	4441	1
4424	4431	1
4431	4432	1
4431	6922	1
4422	4423	1
4421	4422	1
4423	4424	1
4424	4425	1
4423	4427	1
4421	4426	1
4421	4429	1
4425	4426	1
4425	4428	1
4426	4430	1
10765	10776	1
10776	10777	1
10776	10784	1
10767	10774	1
10774	10775	1
10774	5931	1
10765	10766	1
10764	10765	1
10766	10767	1
10767	10768	1
10766	10770	1
10764	10769	1
10764	10772	1
10768	10769	1
10768	10771	1
10769	10773	1
3691	3702	1
3702	3703	1
3702	3704	1
3693	3700	1
3700	3701	1
3700	10994	1
3691	3692	1
3690	3691	1
3692	3693	1
3693	3694	1
3692	3696	1
3690	3695	1
3690	3698	1
3694	3695	1
3694	3697	1
3695	3699	1
10911	10922	1
10922	10923	1
10922	10906	1
10913	10920	1
10920	10921	1
10920	10930	1
10911	10912	1
10910	10911	1
10912	10913	1
10913	10914	1
10912	10916	1
10910	10915	1
10910	10918	1
10914	10915	1
10914	10917	1
10915	10919	1
3528	3535	1
3535	3536	1
3535	9769	1
3526	3537	1
3537	3538	1
3537	3539	1
3527	3528	1
3528	3529	1
3526	3527	1
3525	3526	1
3527	3531	1
3529	3530	1
3529	3532	1
3525	3530	1
3525	3533	1
3530	3534	1
12996	13007	1
13007	13008	1
13007	7505	1
12998	13005	1
13005	13006	1
13005	9504	1
12996	12997	1
12995	12996	1
12997	12998	1
12998	12999	1
12997	13001	1
12995	13000	1
12995	13003	1
12999	13000	1
12999	13002	1
13000	13004	1
10006	10017	1
10017	10018	1
10017	10025	1
10008	10015	1
10015	10016	1
10015	3982	1
10006	10007	1
10005	10006	1
10007	10008	1
10008	10009	1
10007	10011	1
10005	10010	1
10005	10013	1
10009	10010	1
10009	10012	1
10010	10014	1
11330	11341	1
11341	11342	1
11341	4126	1
11332	11339	1
11339	11340	1
11339	10263	1
11330	11331	1
11329	11330	1
11331	11332	1
11332	11333	1
11331	11335	1
11329	11334	1
11329	11337	1
11333	11334	1
11333	11336	1
11334	11338	1
3438	3445	1
3445	3446	1
3445	9533	1
3436	3447	1
3447	3449	1
3447	3448	1
3437	3438	1
3438	3439	1
3436	3437	1
3435	3436	1
3437	3441	1
3439	3440	1
3439	3442	1
3435	3440	1
3435	3443	1
3440	3444	1
9977	9988	1
9988	9989	1
9988	9996	1
9979	9986	1
9986	9987	1
9986	5332	1
9977	9978	1
9976	9977	1
9978	9979	1
9979	9980	1
9978	9982	1
9976	9981	1
9976	9984	1
9980	9981	1
9980	9983	1
9981	9985	1
4959	4970	1
4970	4971	1
4970	4978	1
4961	4968	1
4968	4969	1
4968	6014	1
4959	4960	1
4958	4959	1
4960	4961	1
4961	4962	1
4960	4964	1
4958	4963	1
4958	4966	1
4962	4963	1
4962	4965	1
4963	4967	1
2611	2622	1
2622	2623	1
2622	2624	1
2613	2620	1
2620	2621	1
2620	3860	1
2611	2612	1
2610	2611	1
2612	2613	1
2613	2614	1
2612	2616	1
2610	2615	1
2610	2618	1
2614	2615	1
2614	2617	1
2615	2619	1
3063	3070	1
3070	3071	1
3070	7462	1
3061	3072	1
3072	3073	1
3072	3074	1
3062	3063	1
3063	3064	1
3061	3062	1
3060	3061	1
3062	3066	1
3064	3065	1
3064	3067	1
3060	3065	1
3060	3068	1
3065	3069	1
6883	6894	1
6894	6895	1
6894	6704	1
6885	6892	1
6892	6893	1
6892	6902	1
6883	6884	1
6882	6883	1
6884	6885	1
6885	6886	1
6884	6888	1
6882	6887	1
6882	6890	1
6886	6887	1
6886	6889	1
6887	6891	1
11974	11985	1
11985	11986	1
11985	5216	1
11976	11983	1
11983	11984	1
11983	8762	1
11974	11975	1
11973	11974	1
11975	11976	1
11976	11977	1
11975	11979	1
11973	11978	1
11973	11981	1
11977	11978	1
11977	11980	1
11978	11982	1
12030	12041	1
12041	12042	1
12041	8058	1
12032	12039	1
12039	12040	1
12039	5435	1
12030	12031	1
12029	12030	1
12031	12032	1
12032	12033	1
12031	12035	1
12029	12034	1
12029	12037	1
12033	12034	1
12033	12036	1
12034	12038	1
585	596	1
596	597	1
596	10448	1
587	594	1
594	595	1
573	594	1
585	586	1
584	585	1
586	587	1
587	588	1
586	590	1
584	589	1
584	592	1
588	589	1
588	591	1
589	593	1
13234	13245	1
13245	13246	1
13245	9667	1
13236	13243	1
13243	13244	1
13243	8189	1
13234	13235	1
13233	13234	1
13235	13236	1
13236	13237	1
13235	13239	1
13233	13238	1
13233	13241	1
13237	13238	1
13237	13240	1
13238	13242	1
12100	12111	1
12111	12112	1
12111	10556	1
12102	12109	1
12109	12110	1
12109	5536	1
12100	12101	1
12099	12100	1
12101	12102	1
12102	12103	1
12101	12105	1
12099	12104	1
12099	12107	1
12103	12104	1
12103	12106	1
12104	12108	1
6432	6443	1
6443	6444	1
1783	6443	1
6434	6441	1
6441	6442	1
6441	6451	1
6432	6433	1
6431	6432	1
6433	6434	1
6434	6435	1
6433	6437	1
6431	6436	1
6431	6439	1
6435	6436	1
6435	6438	1
6436	6440	1
3316	3327	1
3327	3329	1
3327	3328	1
3318	3325	1
3325	3326	1
3325	9019	1
3316	3317	1
3315	3316	1
3317	3318	1
3318	3319	1
3317	3321	1
3315	3320	1
3315	3323	1
3319	3320	1
3319	3322	1
3320	3324	1
3196	3207	1
3207	3209	1
3207	3208	1
3198	3205	1
3205	3206	1
3205	8556	1
3196	3197	1
3195	3196	1
3197	3198	1
3198	3199	1
3197	3201	1
3195	3200	1
3195	3203	1
3199	3200	1
3199	3202	1
3200	3204	1
11722	11733	1
11733	11734	1
11733	8323	1
11724	11731	1
11731	11732	1
11731	4765	1
11722	11723	1
11721	11722	1
11723	11724	1
11724	11725	1
11723	11727	1
11721	11726	1
11721	11729	1
11725	11726	1
11725	11728	1
11726	11730	1
12956	12963	1
12963	12964	1
12963	7388	1
12954	12965	1
12965	12966	1
12965	8702	1
12955	12956	1
12956	12957	1
12954	12955	1
12953	12954	1
12955	12959	1
12957	12958	1
12957	12960	1
12953	12958	1
12953	12961	1
12958	12962	1
12352	12363	1
12363	12364	1
12363	5872	1
12354	12361	1
12361	12362	1
12361	8645	1
12352	12353	1
12351	12352	1
12353	12354	1
12354	12355	1
12353	12357	1
12351	12356	1
12351	12359	1
12355	12356	1
12355	12358	1
12356	12360	1
12380	12391	1
12391	12392	1
12391	5901	1
12382	12389	1
12389	12390	1
12389	10307	1
12380	12381	1
12379	12380	1
12381	12382	1
12382	12383	1
12381	12385	1
12379	12384	1
12379	12387	1
12383	12384	1
12383	12386	1
12384	12388	1
3393	3400	1
3400	3401	1
3400	9170	1
3391	3402	1
3402	3403	1
3402	3404	1
3392	3393	1
3393	3394	1
3391	3392	1
3390	3391	1
3392	3396	1
3394	3395	1
3394	3397	1
3390	3395	1
3390	3398	1
3395	3399	1
9233	9244	1
9244	9245	1
9244	9252	1
9235	9242	1
9242	9243	1
9242	9894	1
9233	9234	1
9232	9233	1
9234	9235	1
9235	9236	1
9234	9238	1
9232	9237	1
9232	9240	1
9236	9237	1
9236	9239	1
9237	9241	1
9451	9462	1
9462	9463	1
9462	8381	1
9453	9460	1
9460	9461	1
9460	9470	1
9451	9452	1
9450	9451	1
9452	9453	1
9453	9454	1
9452	9456	1
9450	9455	1
9450	9458	1
9454	9455	1
9454	9457	1
9455	9459	1
12170	12181	1
12181	12182	1
12181	5595	1
12172	12179	1
12179	12180	1
12179	8278	1
12170	12171	1
12169	12170	1
12171	12172	1
12172	12173	1
12171	12175	1
12169	12174	1
12169	12177	1
12173	12174	1
12173	12176	1
12174	12178	1
5003	5014	1
5014	5015	1
5014	10453	1
5005	5012	1
5012	5013	1
5012	5022	1
5003	5004	1
5002	5003	1
5004	5005	1
5005	5006	1
5004	5008	1
5002	5007	1
5002	5010	1
5006	5007	1
5006	5009	1
5007	5011	1
2007	2018	1
2018	2019	1
1995	2018	1
2009	2016	1
2016	2017	1
2016	4504	1
2007	2008	1
2006	2007	1
2008	2009	1
2009	2010	1
2008	2012	1
2006	2011	1
2006	2014	1
2010	2011	1
2010	2013	1
2011	2015	1
7801	7812	1
7812	7813	1
7812	6907	1
7803	7810	1
7810	7811	1
7810	7820	1
7801	7802	1
7800	7801	1
7802	7803	1
7803	7804	1
7802	7806	1
7800	7805	1
7800	7808	1
7804	7805	1
7804	7807	1
7805	7809	1
6592	6603	1
6603	6604	1
6603	9763	1
6594	6601	1
6601	6602	1
6601	6611	1
6592	6593	1
6591	6592	1
6593	6594	1
6594	6595	1
6593	6597	1
6591	6596	1
6591	6599	1
6595	6596	1
6595	6598	1
6596	6600	1
5512	5523	1
5523	5524	1
5523	5531	1
5514	5521	1
5521	5522	1
5521	8673	1
5512	5513	1
5511	5512	1
5513	5514	1
5514	5515	1
5513	5517	1
5511	5516	1
5511	5519	1
5515	5516	1
5515	5518	1
5516	5520	1
8707	8718	1
8718	8719	1
8718	3981	1
8709	8716	1
8716	8717	1
8716	8726	1
8707	8708	1
8706	8707	1
8708	8709	1
8709	8710	1
8708	8712	1
8706	8711	1
8706	8714	1
8710	8711	1
8710	8713	1
8711	8715	1
12002	12013	1
12013	12014	1
12013	7287	1
12004	12011	1
12011	12012	1
12011	5347	1
12002	12003	1
12001	12002	1
12003	12004	1
12004	12005	1
12003	12007	1
12001	12006	1
12001	12009	1
12005	12006	1
12005	12008	1
12006	12010	1
13710	13721	1
13721	13722	1
2233	13721	1
13712	13719	1
13719	13720	1
13719	10615	1
13710	13711	1
13709	13710	1
13711	13712	1
13712	13713	1
13711	13715	1
13709	13714	1
13709	13717	1
13713	13714	1
13713	13716	1
13714	13718	1
11638	11649	1
11649	11650	1
11649	4650	1
11640	11647	1
11647	11648	1
331	11647	1
11638	11639	1
11637	11638	1
11639	11640	1
11640	11641	1
11639	11643	1
11637	11642	1
11637	11645	1
11641	11642	1
11641	11644	1
11642	11646	1
11442	11453	1
11453	11454	1
11453	4795	1
11444	11451	1
11451	11452	1
11451	4271	1
11442	11443	1
11441	11442	1
11443	11444	1
11444	11445	1
11443	11447	1
11441	11446	1
11441	11449	1
11445	11446	1
11445	11448	1
11446	11450	1
13598	13609	1
13609	13610	1
13609	10542	1
13600	13607	1
13607	13608	1
13607	9856	1
13598	13599	1
13597	13598	1
13599	13600	1
13600	13601	1
13599	13603	1
13597	13602	1
13597	13605	1
13601	13602	1
13601	13604	1
13602	13606	1
10619	10630	1
10630	10631	1
10630	9534	1
10621	10628	1
10628	10629	1
10628	10638	1
10619	10620	1
10618	10619	1
10620	10621	1
10621	10622	1
10620	10624	1
10618	10623	1
10618	10626	1
10622	10623	1
10622	10625	1
10623	10627	1
4349	4360	1
4360	4361	1
4360	11113	1
4351	4358	1
4358	4359	1
4358	4368	1
4349	4350	1
4348	4349	1
4350	4351	1
4351	4352	1
4350	4354	1
4348	4353	1
4348	4356	1
4352	4353	1
4352	4355	1
4353	4357	1
2487	2498	1
2498	2499	1
2475	2498	1
2489	2496	1
2496	2497	1
2496	4592	1
2487	2488	1
2486	2487	1
2488	2489	1
2489	2490	1
2488	2492	1
2486	2491	1
2486	2494	1
2490	2491	1
2490	2493	1
2491	2495	1
12688	12699	1
12699	12700	1
12699	6514	1
12690	12697	1
12697	12698	1
12697	7491	1
12688	12689	1
12687	12688	1
12689	12690	1
12690	12691	1
12689	12693	1
12687	12692	1
12687	12695	1
12691	12692	1
12691	12694	1
12692	12696	1
864	875	1
875	876	1
852	875	1
866	873	1
873	874	1
873	6276	1
864	865	1
863	864	1
865	866	1
866	867	1
865	869	1
863	868	1
863	871	1
867	868	1
867	870	1
868	872	1
5352	5363	1
5363	5364	1
5363	10060	1
5354	5361	1
5361	5362	1
5361	5371	1
5352	5353	1
5351	5352	1
5353	5354	1
5354	5355	1
5353	5357	1
5351	5356	1
5351	5359	1
5355	5356	1
5355	5358	1
5356	5360	1
5850	5857	1
5857	5858	1
5857	5867	1
5848	5859	1
5859	5860	1
5859	5926	1
5850	5849	1
5851	5850	1
5849	5848	1
5848	5847	1
5849	5853	1
5851	5852	1
5851	5854	1
5847	5852	1
5847	5855	1
5852	5856	1
11316	11327	1
11327	11328	1
11327	6718	1
11318	11325	1
11325	11326	1
11325	4098	1
11316	11317	1
11315	11316	1
11317	11318	1
11318	11319	1
11317	11321	1
11315	11320	1
11315	11323	1
11319	11320	1
11319	11322	1
11320	11324	1
3421	3432	1
3432	3433	1
3432	3434	1
3423	3430	1
3430	3431	1
3430	9446	1
3421	3422	1
3420	3421	1
3422	3423	1
3423	3424	1
3422	3426	1
3420	3425	1
3420	3428	1
3424	3425	1
3424	3427	1
3425	3429	1
2130	2141	1
2141	2142	1
2118	2141	1
2132	2139	1
2139	2140	1
2139	9257	1
2130	2131	1
2129	2130	1
2131	2132	1
2132	2133	1
2131	2135	1
2129	2134	1
2129	2137	1
2133	2134	1
2133	2136	1
2134	2138	1
3736	3747	1
3747	3749	1
3747	3748	1
3738	3745	1
3745	3746	1
3745	11157	1
3736	3737	1
3735	3736	1
3737	3738	1
3738	3739	1
3737	3741	1
3735	3740	1
3735	3743	1
3739	3740	1
3739	3742	1
3740	3744	1
8985	8996	1
8996	8997	1
8996	9004	1
8987	8994	1
8994	8995	1
8994	6538	1
8985	8986	1
8984	8985	1
8986	8987	1
8987	8988	1
8986	8990	1
8984	8989	1
8984	8992	1
8988	8989	1
8988	8991	1
8989	8993	1
1728	1739	1
1739	1740	1
1739	8024	1
1730	1737	1
1737	1738	1
1716	1737	1
1728	1729	1
1727	1728	1
1729	1730	1
1730	1731	1
1729	1733	1
1727	1732	1
1727	1735	1
1731	1732	1
1731	1734	1
1732	1736	1
8534	8541	1
8541	8542	1
8541	8551	1
8532	8543	1
8543	8544	1
8543	5406	1
8533	8534	1
8534	8535	1
8532	8533	1
8531	8532	1
8533	8537	1
8535	8536	1
8535	8538	1
8531	8536	1
8531	8539	1
8536	8540	1
12114	12125	1
12125	12126	1
12125	11053	1
12116	12123	1
12123	12124	1
12123	5565	1
12114	12115	1
12113	12114	1
12115	12116	1
12116	12117	1
12115	12119	1
12113	12118	1
12113	12121	1
12117	12118	1
12117	12120	1
12118	12122	1
11582	11593	1
11593	11594	1
11593	11141	1
11584	11591	1
11591	11592	1
11591	4562	1
11582	11583	1
11581	11582	1
11583	11584	1
11584	11585	1
11583	11587	1
11581	11586	1
11581	11589	1
11585	11586	1
11585	11588	1
11586	11590	1
13108	13119	1
13119	13120	1
13119	7854	1
13110	13117	1
13117	13118	1
13117	8863	1
13108	13109	1
13107	13108	1
13109	13110	1
13110	13111	1
13109	13113	1
13107	13112	1
13107	13115	1
13111	13112	1
13111	13114	1
13112	13116	1
2686	2697	1
2697	2698	1
2697	2699	1
2688	2695	1
2695	2696	1
2695	4383	1
2686	2687	1
2685	2686	1
2687	2688	1
2688	2689	1
2687	2691	1
2685	2690	1
2685	2693	1
2689	2690	1
2689	2692	1
2690	2694	1
6082	6093	1
6093	6094	1
6093	7578	1
6084	6091	1
6091	6092	1
6091	6106	1
6082	6083	1
6081	6082	1
6083	6084	1
6084	6085	1
6083	6087	1
6081	6086	1
6081	6089	1
6085	6086	1
6085	6088	1
6086	6090	1
13640	13651	1
13651	13652	1
13651	9972	1
13642	13649	1
13649	13650	1
13649	10336	1
13640	13641	1
13639	13640	1
13641	13642	1
13642	13643	1
13641	13645	1
13639	13644	1
13639	13647	1
13643	13644	1
13643	13646	1
13644	13648	1
3181	3192	1
3192	3193	1
3192	3194	1
3183	3190	1
3190	3191	1
3190	8425	1
3181	3182	1
3180	3181	1
3182	3183	1
3183	3184	1
3182	3186	1
3180	3185	1
3180	3188	1
3184	3185	1
3184	3187	1
3185	3189	1
3138	3145	1
3145	3146	1
3145	8102	1
3136	3147	1
3147	3149	1
3147	3148	1
3137	3138	1
3138	3139	1
3136	3137	1
3135	3136	1
3137	3141	1
3139	3140	1
3139	3142	1
3135	3140	1
3135	3143	1
3140	3144	1
13682	13693	1
13693	13694	1
13693	11039	1
13684	13691	1
13691	13692	1
13691	10498	1
13682	13683	1
13681	13682	1
13683	13684	1
13684	13685	1
13683	13687	1
13681	13686	1
13681	13689	1
13685	13686	1
13685	13688	1
13686	13690	1
3213	3220	1
3220	3221	1
3220	8572	1
3211	3222	1
3222	3224	1
3222	3223	1
3212	3213	1
3213	3214	1
3211	3212	1
3210	3211	1
3212	3216	1
3214	3215	1
3214	3217	1
3210	3215	1
3210	3218	1
3215	3219	1
11014	11025	1
11025	11026	1
11025	11033	1
11016	11023	1
11023	11024	1
1103	11023	1
11014	11015	1
11013	11014	1
11015	11016	1
11016	11017	1
11015	11019	1
11013	11018	1
11013	11021	1
11017	11018	1
11017	11020	1
11018	11022	1
12590	12601	1
12601	12602	1
12601	7213	1
12592	12599	1
12599	12600	1
12599	6310	1
12590	12591	1
12589	12590	1
12591	12592	1
12592	12593	1
12591	12595	1
12589	12594	1
12589	12597	1
12593	12594	1
12593	12596	1
12594	12598	1
12072	12083	1
12083	12084	1
12083	5508	1
12074	12081	1
12081	12082	1
12081	9899	1
12072	12073	1
12071	12072	1
12073	12074	1
12074	12075	1
12073	12077	1
12071	12076	1
12071	12079	1
12075	12076	1
12075	12078	1
12076	12080	1
3256	3267	1
3267	3268	1
3267	3269	1
3258	3265	1
3265	3266	1
3265	8893	1
3256	3257	1
3255	3256	1
3257	3258	1
3258	3259	1
3257	3261	1
3255	3260	1
3255	3263	1
3259	3260	1
3259	3262	1
3260	3264	1
12856	12867	1
12867	12868	1
12867	9374	1
12858	12865	1
12865	12866	1
12865	7069	1
12856	12857	1
12855	12856	1
12857	12858	1
12858	12859	1
12857	12861	1
12855	12860	1
12855	12863	1
12859	12860	1
12859	12862	1
12860	12864	1
8165	8176	1
8176	8177	1
8176	8184	1
8167	8174	1
8174	8175	1
8174	9543	1
8165	8166	1
8164	8165	1
8166	8167	1
8167	8168	1
8166	8170	1
8164	8169	1
8164	8172	1
8168	8169	1
8168	8171	1
8169	8173	1
11570	11577	1
11577	11578	1
11577	5932	1
11568	11579	1
11579	11580	1
11579	4563	1
11570	11569	1
11571	11570	1
11569	11568	1
11568	11567	1
11569	11573	1
11571	11572	1
11571	11574	1
11567	11572	1
11567	11575	1
11572	11576	1
12268	12279	1
12279	12280	1
12279	5771	1
12270	12277	1
12277	12278	1
12277	6165	1
12268	12269	1
12267	12268	1
12269	12270	1
12270	12271	1
12269	12273	1
12267	12272	1
12267	12275	1
12271	12272	1
12271	12274	1
12272	12276	1
13542	13553	1
13553	13554	1
13553	9068	1
13544	13551	1
13551	13552	1
13551	10644	1
13542	13543	1
13541	13542	1
13543	13544	1
13544	13545	1
13543	13547	1
13541	13546	1
13541	13549	1
13545	13546	1
13545	13548	1
13546	13550	1
3018	3025	1
3025	3026	1
3025	7034	1
3016	3027	1
3027	3028	1
3027	3029	1
3017	3018	1
3018	3019	1
3016	3017	1
3015	3016	1
3017	3021	1
3019	3020	1
3019	3022	1
3015	3020	1
3015	3023	1
3020	3024	1
8678	8689	1
8689	8690	1
8689	5741	1
8680	8687	1
8687	8688	1
8687	8697	1
8678	8679	1
8677	8678	1
8679	8680	1
8680	8681	1
8679	8683	1
8677	8682	1
8677	8685	1
8681	8682	1
8681	8684	1
8682	8686	1
5702	5713	1
5713	5714	1
5713	5721	1
5704	5711	1
5711	5712	1
5711	4708	1
5702	5703	1
5701	5702	1
5703	5704	1
5704	5705	1
5703	5707	1
5701	5706	1
5701	5709	1
5705	5706	1
5705	5708	1
5706	5710	1
1913	1924	1
1924	1925	1
1924	10745	1
1915	1922	1
1922	1923	1
1901	1922	1
1913	1914	1
1912	1913	1
1914	1915	1
1915	1916	1
1914	1918	1
1912	1917	1
1912	1920	1
1916	1917	1
1916	1919	1
1917	1921	1
6024	6035	1
6035	6036	1
6035	7223	1
6026	6033	1
6033	6034	1
6033	6043	1
6024	6025	1
6023	6024	1
6025	6026	1
6026	6027	1
6025	6029	1
6023	6028	1
6023	6031	1
6027	6028	1
6027	6030	1
6028	6032	1
13780	13791	1
13791	13792	1
640	13791	1
13782	13789	1
13789	13790	1
1598	13789	1
13780	13781	1
13779	13780	1
13781	13782	1
13782	13783	1
13781	13785	1
13779	13784	1
13779	13787	1
13783	13784	1
13783	13786	1
13784	13788	1
2928	2935	1
2935	2936	1
2935	6543	1
2926	2937	1
2937	2939	1
2937	2938	1
2927	2928	1
2928	2929	1
2926	2927	1
2925	2926	1
2927	2931	1
2929	2930	1
2929	2932	1
2925	2930	1
2925	2933	1
2930	2934	1
9291	9302	1
9302	9303	1
9302	9310	1
9293	9300	1
9300	9301	1
9300	4673	1
9291	9292	1
9290	9291	1
9292	9293	1
9293	9294	1
9292	9296	1
9290	9295	1
9290	9298	1
9294	9295	1
9294	9297	1
9295	9299	1
5485	5492	1
5492	5493	1
5492	4955	1
5483	5494	1
5494	5495	1
5494	5502	1
5484	5485	1
5485	5486	1
5483	5484	1
5482	5483	1
5484	5488	1
5486	5487	1
5486	5489	1
5482	5487	1
5482	5490	1
5487	5491	1
13080	13091	1
13091	13092	1
13091	7709	1
13082	13089	1
13089	13090	1
13089	10804	1
13080	13081	1
13079	13080	1
13081	13082	1
13082	13083	1
13081	13085	1
13079	13084	1
13079	13087	1
13083	13084	1
13083	13086	1
13084	13088	1
12408	12419	1
12419	12420	1
12419	9373	1
12410	12417	1
12417	12418	1
12417	5976	1
12408	12409	1
12407	12408	1
12409	12410	1
12410	12411	1
12409	12413	1
12407	12412	1
12407	12415	1
12411	12412	1
12411	12414	1
12412	12416	1
10809	10820	1
10820	10821	1
10820	6975	1
10811	10818	1
10818	10819	1
10818	10828	1
10809	10810	1
10808	10809	1
10810	10811	1
10811	10812	1
10810	10814	1
10808	10813	1
10808	10816	1
10812	10813	1
10812	10815	1
10813	10817	1
2806	2817	1
2817	2819	1
2817	2818	1
2808	2815	1
2815	2816	1
2815	5405	1
2806	2807	1
2805	2806	1
2807	2808	1
2808	2809	1
2807	2811	1
2805	2810	1
2805	2813	1
2809	2810	1
2809	2812	1
2810	2814	1
13472	13483	1
13483	13484	1
13483	9826	1
13474	13481	1
13481	13482	1
13481	8835	1
13472	13473	1
13471	13472	1
13473	13474	1
13474	13475	1
13473	13477	1
13471	13476	1
13471	13479	1
13475	13476	1
13475	13478	1
13476	13480	1
9731	9738	1
9738	9739	1
9738	9798	1
9729	9740	1
9740	9741	1
9740	9748	1
9730	9731	1
9731	9732	1
9729	9730	1
9728	9729	1
9730	9734	1
9732	9733	1
9732	9735	1
9728	9733	1
9728	9736	1
9733	9737	1
11232	11243	1
11243	11244	1
11243	3895	1
11234	11241	1
11241	11242	1
11241	6588	1
11232	11233	1
11231	11232	1
11233	11234	1
11234	11235	1
11233	11237	1
11231	11236	1
11231	11239	1
11235	11236	1
11235	11238	1
11236	11240	1
11500	11507	1
11507	11508	1
11507	9884	1
11498	11509	1
11509	11510	1
11509	4374	1
11500	11499	1
11501	11500	1
11499	11498	1
11498	11497	1
11499	11503	1
11501	11502	1
11501	11504	1
11497	11502	1
11497	11505	1
11502	11506	1
2656	2667	1
2667	2669	1
2667	2668	1
2658	2665	1
2665	2666	1
2665	4272	1
2656	2657	1
2655	2656	1
2657	2658	1
2658	2659	1
2657	2661	1
2655	2660	1
2655	2663	1
2659	2660	1
2659	2662	1
2660	2664	1
3121	3132	1
3132	3133	1
3132	3134	1
3123	3130	1
3130	3131	1
3130	8087	1
3121	3122	1
3120	3121	1
3122	3123	1
3123	3124	1
3122	3126	1
3120	3125	1
3120	3128	1
3124	3125	1
3124	3127	1
3125	3129	1
13318	13329	1
13329	13330	1
13329	8279	1
13320	13327	1
13327	13328	1
13327	9141	1
13318	13319	1
13317	13318	1
13319	13320	1
13320	13321	1
13319	13323	1
13317	13322	1
13317	13325	1
13321	13322	1
13321	13324	1
13322	13326	1
5775	5786	1
5786	5787	1
5786	7257	1
5777	5784	1
5784	5785	1
5784	5794	1
5775	5776	1
5774	5775	1
5776	5777	1
5777	5778	1
5776	5780	1
5774	5779	1
5774	5782	1
5778	5779	1
5778	5781	1
5779	5783	1
9773	9784	1
9784	9785	1
9784	9792	1
9775	9782	1
9782	9783	1
9782	8454	1
9773	9774	1
9772	9773	1
9774	9775	1
9775	9776	1
9774	9778	1
9772	9777	1
9772	9780	1
9776	9777	1
9776	9779	1
9777	9781	1
10282	10293	1
10293	10294	1
10293	10301	1
10284	10291	1
10291	10292	1
10291	8029	1
10282	10283	1
10281	10282	1
10283	10284	1
10284	10285	1
10283	10287	1
10281	10286	1
10281	10289	1
10285	10286	1
10285	10288	1
10286	10290	1
12940	12951	1
12951	12952	1
12951	7389	1
12942	12949	1
12949	12950	1
12949	10001	1
12940	12941	1
12939	12940	1
12941	12942	1
12942	12943	1
12941	12945	1
12939	12944	1
12939	12947	1
12943	12944	1
12943	12946	1
12944	12948	1
3033	3040	1
3040	3041	1
3040	7315	1
3031	3042	1
3042	3044	1
3042	3043	1
3032	3033	1
3033	3034	1
3031	3032	1
3030	3031	1
3032	3036	1
3034	3035	1
3034	3037	1
3030	3035	1
3030	3038	1
3035	3039	1
10211	10218	1
10218	10219	1
10218	8892	1
10209	10220	1
10220	10221	1
10220	10228	1
10210	10211	1
10211	10212	1
10209	10210	1
10208	10209	1
10210	10214	1
10212	10213	1
10212	10215	1
10208	10213	1
10208	10216	1
10213	10217	1
2866	2877	1
2877	2878	1
2877	2879	1
2868	2875	1
2875	2876	1
2875	5736	1
2866	2867	1
2865	2866	1
2867	2868	1
2868	2869	1
2867	2871	1
2865	2870	1
2865	2873	1
2869	2870	1
2869	2872	1
2870	2874	1
4828	4839	1
4839	4840	1
4839	4862	1
4830	4837	1
4837	4838	1
4837	4847	1
4828	4829	1
4827	4828	1
4829	4830	1
4830	4831	1
4829	4833	1
4827	4832	1
4827	4835	1
4831	4832	1
4831	4834	1
4832	4836	1
6286	6297	1
6297	6298	1
6297	6485	1
6288	6295	1
6295	6296	1
6295	6305	1
6286	6287	1
6285	6286	1
6287	6288	1
6288	6289	1
6287	6291	1
6285	6290	1
6285	6293	1
6289	6290	1
6289	6292	1
6290	6294	1
12604	12615	1
12615	12616	1
1809	12615	1
12606	12613	1
12613	12614	1
12613	6325	1
12604	12605	1
12603	12604	1
12605	12606	1
12606	12607	1
12605	12609	1
12603	12608	1
12603	12611	1
12607	12608	1
12607	12610	1
12608	12612	1
5746	5757	1
5757	5758	1
5757	9855	1
5748	5755	1
5755	5756	1
5755	5765	1
5746	5747	1
5745	5746	1
5747	5748	1
5748	5749	1
5747	5751	1
5745	5750	1
5745	5753	1
5749	5750	1
5749	5752	1
5750	5754	1
8459	8470	1
8470	8471	1
8470	5463	1
8461	8468	1
8468	8469	1
8468	8478	1
8459	8460	1
8458	8459	1
8460	8461	1
8461	8462	1
8460	8464	1
8458	8463	1
8458	8466	1
8462	8463	1
8462	8465	1
8463	8467	1
1944	1955	1
1955	1956	1
1955	1957	1
1946	1953	1
1953	1954	1
1932	1953	1
1944	1945	1
1943	1944	1
1945	1946	1
1946	1947	1
1945	1949	1
1943	1948	1
1943	1951	1
1947	1948	1
1947	1950	1
1948	1952	1
7160	7171	1
7171	7172	1
7171	6427	1
7162	7169	1
7169	7170	1
7169	7184	1
7160	7161	1
7159	7160	1
7161	7162	1
7162	7163	1
7161	7165	1
7159	7164	1
7159	7167	1
7163	7164	1
7163	7166	1
7164	7168	1
5410	5421	1
5421	5422	1
5421	5429	1
5412	5419	1
5419	5420	1
5419	10672	1
5410	5411	1
5409	5410	1
5411	5412	1
5412	5413	1
5411	5415	1
5409	5414	1
5409	5417	1
5413	5414	1
5413	5416	1
5414	5418	1
12674	12685	1
12685	12686	1
12685	7155	1
12676	12683	1
12683	12684	1
12683	6515	1
12674	12675	1
12673	12674	1
12675	12676	1
12676	12677	1
12675	12679	1
12673	12678	1
12673	12681	1
12677	12678	1
12677	12680	1
12678	12682	1
7408	7419	1
7419	7420	1
7419	9403	1
7410	7417	1
7417	7418	1
7417	7427	1
7408	7409	1
7407	7408	1
7409	7410	1
7410	7411	1
7409	7413	1
7407	7412	1
7407	7415	1
7411	7412	1
7411	7414	1
7412	7416	1
10180	10191	1
10191	10192	1
1322	10191	1
10182	10189	1
10189	10190	1
10189	10199	1
10180	10181	1
10179	10180	1
10181	10182	1
10182	10183	1
10181	10185	1
10179	10184	1
10179	10187	1
10183	10184	1
10183	10186	1
10184	10188	1
11960	11971	1
11971	11972	1
11971	5217	1
11962	11969	1
11969	11970	1
2306	11969	1
11960	11961	1
11959	11960	1
11961	11962	1
11962	11963	1
11961	11965	1
11959	11964	1
11959	11967	1
11963	11964	1
11963	11966	1
11964	11968	1
8649	8660	1
8660	8661	1
8660	8668	1
8651	8658	1
8658	8659	1
8658	9345	1
8649	8650	1
8648	8649	1
8650	8651	1
8651	8652	1
8650	8654	1
8648	8653	1
8648	8656	1
8652	8653	1
8652	8655	1
8653	8657	1
6169	6180	1
6180	6181	1
6180	7398	1
6171	6178	1
6178	6179	1
6178	6188	1
6169	6170	1
6168	6169	1
6170	6171	1
6171	6172	1
6170	6174	1
6168	6173	1
6168	6176	1
6172	6173	1
6172	6175	1
6173	6177	1
11892	11899	1
11899	11900	1
11899	5101	1
11890	11901	1
11901	11902	1
11901	10557	1
11892	11891	1
11893	11892	1
11891	11890	1
11890	11889	1
11891	11895	1
11893	11894	1
11893	11896	1
11889	11894	1
11889	11897	1
11894	11898	1
7000	7011	1
7011	7012	1
7011	7019	1
7002	7009	1
7009	7010	1
7009	5056	1
7000	7001	1
6999	7000	1
7001	7002	1
7002	7003	1
7001	7005	1
6999	7004	1
6999	7007	1
7003	7004	1
7003	7006	1
7004	7008	1
4247	4258	1
4258	4259	1
4258	4266	1
4249	4256	1
4256	4257	1
4256	7345	1
4247	4248	1
4246	4247	1
4248	4249	1
4249	4250	1
4248	4252	1
4246	4251	1
4246	4254	1
4250	4251	1
4250	4253	1
4251	4255	1
8868	8879	1
8879	8880	1
8879	8887	1
8870	8877	1
8877	8878	1
8877	9631	1
8868	8869	1
8867	8868	1
8869	8870	1
8870	8871	1
8869	8873	1
8867	8872	1
8867	8875	1
8871	8872	1
8871	8874	1
8872	8876	1
6519	6530	1
6530	6531	1
6530	6544	1
6521	6528	1
6528	6529	1
6528	9753	1
6519	6520	1
6518	6519	1
6520	6521	1
6521	6522	1
6520	6524	1
6518	6523	1
6518	6526	1
6522	6523	1
6522	6525	1
6523	6527	1
10122	10133	1
10133	10134	1
10133	5507	1
10124	10131	1
10131	10132	1
10131	10146	1
10122	10123	1
10121	10122	1
10123	10124	1
10124	10125	1
10123	10127	1
10121	10126	1
10121	10129	1
10125	10126	1
10125	10128	1
10126	10130	1
12984	12991	1
12991	12992	1
1415	12991	1
12982	12993	1
12993	12994	1
12993	7432	1
12983	12984	1
12984	12985	1
12982	12983	1
12981	12982	1
12983	12987	1
12985	12986	1
12985	12988	1
12981	12986	1
12981	12989	1
12986	12990	1
8912	8923	1
8923	8924	1
8923	10272	1
8914	8921	1
8921	8922	1
8921	8931	1
8912	8913	1
8911	8912	1
8913	8914	1
8914	8915	1
8913	8917	1
8911	8916	1
8911	8919	1
8915	8916	1
8915	8918	1
8916	8920	1
9148	9155	1
9155	9156	1
9155	10204	1
9146	9157	1
9157	9158	1
9157	9165	1
9147	9148	1
9148	9149	1
9146	9147	1
9145	9146	1
9147	9151	1
9149	9150	1
9149	9152	1
9145	9150	1
9145	9153	1
9150	9154	1
13444	13455	1
13455	13456	1
13455	8806	1
13446	13453	1
13453	13454	1
1011	13453	1
13444	13445	1
13443	13444	1
13445	13446	1
13446	13447	1
13445	13449	1
13443	13448	1
13443	13451	1
13447	13448	1
13447	13450	1
13448	13452	1
3513	3520	1
3520	3521	1
3520	9768	1
3511	3522	1
3522	3524	1
3522	3523	1
3512	3513	1
3513	3514	1
3511	3512	1
3510	3511	1
3512	3516	1
3514	3515	1
3514	3517	1
3510	3515	1
3510	3518	1
3515	3519	1
12576	12587	1
12587	12588	1
12587	9083	1
12578	12585	1
12585	12586	1
12585	6311	1
12576	12577	1
12575	12576	1
12577	12578	1
12578	12579	1
12577	12581	1
12575	12580	1
12575	12583	1
12579	12580	1
12579	12582	1
12580	12584	1
13304	13315	1
13315	13316	1
13315	10306	1
13306	13313	1
13313	13314	1
13313	8263	1
13304	13305	1
13303	13304	1
13305	13306	1
13306	13307	1
13305	13309	1
13303	13308	1
13303	13311	1
13307	13308	1
13307	13310	1
13308	13312	1
7859	7870	1
7870	7871	1
7870	7878	1
7861	7868	1
7868	7869	1
7868	6369	1
7859	7860	1
7858	7859	1
7860	7861	1
7861	7862	1
7860	7864	1
7858	7863	1
7858	7866	1
7862	7863	1
7862	7865	1
7863	7867	1
12198	12209	1
12209	12210	1
12209	5902	1
12200	12207	1
12207	12208	1
12207	5640	1
12198	12199	1
12197	12198	1
12199	12200	1
12200	12201	1
12199	12203	1
12197	12202	1
12197	12205	1
12201	12202	1
12201	12204	1
12202	12206	1
11456	11467	1
11467	11468	1
11467	6996	1
11458	11465	1
11465	11466	1
11465	4286	1
11456	11457	1
11455	11456	1
11457	11458	1
11458	11459	1
11457	11461	1
11455	11460	1
11455	11463	1
11459	11460	1
11459	11462	1
11460	11464	1
13360	13371	1
13371	13372	1
13371	8382	1
13362	13369	1
13369	13370	1
486	13369	1
13360	13361	1
13359	13360	1
13361	13362	1
13362	13363	1
13361	13365	1
13359	13364	1
13359	13367	1
13363	13364	1
13363	13366	1
13364	13368	1
4799	4810	1
4810	4811	1
2259	4810	1
4801	4808	1
4808	4809	1
4808	4818	1
4799	4800	1
4798	4799	1
4800	4801	1
4801	4802	1
4800	4804	1
4798	4803	1
4798	4806	1
4802	4803	1
4802	4805	1
4803	4807	1
180	191	1
191	192	1
170	191	1
182	189	1
189	190	1
189	6326	1
180	181	1
179	180	1
181	182	1
182	183	1
181	185	1
179	184	1
179	187	1
183	184	1
183	186	1
184	188	1
5439	5450	1
5450	5451	1
5450	5458	1
5441	5448	1
5448	5449	1
5448	9725	1
5439	5440	1
5438	5439	1
5440	5441	1
5441	5442	1
5440	5444	1
5438	5443	1
5438	5446	1
5442	5443	1
5442	5445	1
5443	5447	1
6198	6209	1
6209	6210	1
6209	11009	1
6200	6207	1
6207	6208	1
6207	6217	1
6198	6199	1
6197	6198	1
6199	6200	1
6200	6201	1
6199	6203	1
6197	6202	1
6197	6205	1
6201	6202	1
6201	6204	1
6202	6206	1
2701	2712	1
2712	2714	1
2712	2713	1
2703	2710	1
2710	2711	1
2710	4534	1
2701	2702	1
2700	2701	1
2702	2703	1
2703	2704	1
2702	2706	1
2700	2705	1
2700	2708	1
2704	2705	1
2704	2707	1
2705	2709	1
12702	12713	1
12713	12714	1
12713	6587	1
12704	12711	1
12711	12712	1
12711	8161	1
12702	12703	1
12701	12702	1
12703	12704	1
12704	12705	1
12703	12707	1
12701	12706	1
12701	12709	1
12705	12706	1
12705	12708	1
12706	12710	1
3766	3777	1
3777	3778	1
3777	3779	1
3768	3775	1
3775	3776	1
2073	3775	1
3766	3767	1
3765	3766	1
3767	3768	1
3768	3769	1
3767	3771	1
3765	3770	1
3765	3773	1
3769	3770	1
3769	3772	1
3770	3774	1
13276	13287	1
13287	13288	1
13287	8248	1
13278	13285	1
13285	13286	1
1875	13285	1
13276	13277	1
13275	13276	1
13277	13278	1
13278	13279	1
13277	13281	1
13275	13280	1
13275	13283	1
13279	13280	1
13279	13282	1
13280	13284	1
2763	2770	1
2770	2771	1
2770	5100	1
2761	2772	1
2772	2773	1
2772	2774	1
2762	2763	1
2763	2764	1
2761	2762	1
2760	2761	1
2762	2766	1
2764	2765	1
2764	2767	1
2760	2765	1
2760	2768	1
2765	2769	1
9700	9711	1
9711	9712	1
9711	10233	1
9702	9709	1
9709	9710	1
9709	9719	1
9700	9701	1
9699	9700	1
9701	9702	1
9702	9703	1
9701	9705	1
9699	9704	1
9699	9707	1
9703	9704	1
9703	9706	1
9704	9708	1
12284	12291	1
12291	12292	1
12291	5799	1
12282	12293	1
12293	12294	1
12293	7258	1
12284	12283	1
12285	12284	1
12283	12282	1
12282	12281	1
12283	12287	1
12285	12286	1
12285	12288	1
12281	12286	1
12281	12289	1
12286	12290	1
13094	13105	1
13105	13106	1
13105	9281	1
13096	13103	1
13103	13104	1
13103	7796	1
13094	13095	1
13093	13094	1
13095	13096	1
13096	13097	1
13095	13099	1
13093	13098	1
13093	13101	1
13097	13098	1
13097	13100	1
13098	13102	1
6461	6472	1
6472	6473	1
6472	4476	1
6463	6470	1
6470	6471	1
6470	6480	1
6461	6462	1
6460	6461	1
6462	6463	1
6463	6464	1
6462	6466	1
6460	6465	1
6460	6468	1
6464	6465	1
6464	6467	1
6465	6469	1
6796	6807	1
6807	6808	1
6807	10278	1
6798	6805	1
6805	6806	1
6805	6815	1
6796	6797	1
6795	6796	1
6797	6798	1
6798	6799	1
6797	6801	1
6795	6800	1
6795	6803	1
6799	6800	1
6799	6802	1
6800	6804	1
2823	2830	1
2830	2831	1
2830	5473	1
2821	2832	1
2832	2834	1
2832	2833	1
2822	2823	1
2823	2824	1
2821	2822	1
2820	2821	1
2822	2826	1
2824	2825	1
2824	2827	1
2820	2825	1
2820	2828	1
2825	2829	1
1619	1630	1
1630	1631	1
1630	6398	1
1621	1628	1
1628	1629	1
1632	1628	1
1619	1620	1
1618	1619	1
1620	1621	1
1621	1622	1
1620	1624	1
1618	1623	1
1618	1626	1
1622	1623	1
1622	1625	1
1623	1627	1
7320	7331	1
7331	7332	1
7331	7339	1
7322	7329	1
7329	7330	1
7329	8731	1
7320	7321	1
7319	7320	1
7321	7322	1
7322	7323	1
7321	7325	1
7319	7324	1
7319	7327	1
7323	7324	1
7323	7326	1
7324	7328	1
12506	12517	1
12517	12518	1
12517	10526	1
12508	12515	1
12515	12516	1
12515	6194	1
12506	12507	1
12505	12506	1
12507	12508	1
12508	12509	1
12507	12511	1
12505	12510	1
12505	12513	1
12509	12510	1
12509	12512	1
12510	12514	1
1143	1150	1
1150	1151	1
1129	1150	1
1141	1152	1
1152	1153	1
1152	6747	1
1142	1143	1
1143	1144	1
1141	1142	1
1140	1141	1
1142	1146	1
1144	1145	1
1144	1147	1
1140	1145	1
1140	1148	1
1145	1149	1
11302	11313	1
11313	11314	1
11313	4069	1
11304	11311	1
11311	11312	1
11311	6820	1
11302	11303	1
11301	11302	1
11303	11304	1
11304	11305	1
11303	11307	1
11301	11306	1
11301	11309	1
11305	11306	1
11305	11308	1
11306	11310	1
1049	1060	1
1060	1061	1
1037	1060	1
1051	1058	1
1058	1059	1
1160	1058	1
1049	1050	1
1048	1049	1
1050	1051	1
1051	1052	1
1050	1054	1
1048	1053	1
1048	1056	1
1052	1053	1
1052	1055	1
1053	1057	1
13192	13203	1
13203	13204	1
13203	8557	1
13194	13201	1
13201	13202	1
13201	8131	1
13192	13193	1
13191	13192	1
13193	13194	1
13194	13195	1
13193	13197	1
13191	13196	1
13191	13199	1
13195	13196	1
13195	13198	1
13196	13200	1
8285	8292	1
8292	8293	1
8292	8302	1
8283	8294	1
8294	8295	1
8294	11078	1
8285	8284	1
8286	8285	1
8284	8283	1
8283	8282	1
8284	8288	1
8286	8287	1
8286	8289	1
8282	8287	1
8282	8290	1
8287	8291	1
9349	9360	1
9360	9361	1
9360	9368	1
9351	9358	1
9358	9359	1
9358	9171	1
9349	9350	1
9348	9349	1
9350	9351	1
9351	9352	1
9350	9354	1
9348	9353	1
9348	9356	1
9352	9353	1
9352	9355	1
9353	9357	1
5877	5888	1
5888	5889	1
5888	8264	1
5879	5886	1
5886	5887	1
5886	5896	1
5877	5878	1
5876	5877	1
5878	5879	1
5879	5880	1
5878	5882	1
5876	5881	1
5876	5884	1
5880	5881	1
5880	5883	1
5881	5885	1
2881	2892	1
2892	2893	1
2892	2894	1
2883	2890	1
2890	2891	1
2890	5770	1
2881	2882	1
2880	2881	1
2882	2883	1
2883	2884	1
2882	2886	1
2880	2885	1
2880	2888	1
2884	2885	1
2884	2887	1
2885	2889	1
4872	4883	1
4883	4884	1
4883	4891	1
4874	4881	1
4881	4882	1
4881	10335	1
4872	4873	1
4871	4872	1
4873	4874	1
4874	4875	1
4873	4877	1
4871	4876	1
4871	4879	1
4875	4876	1
4875	4878	1
4876	4880	1
7046	7053	1
7053	7054	1
7053	6457	1
7044	7055	1
7055	7056	1
7055	7063	1
7046	7045	1
7047	7046	1
7045	7044	1
7044	7043	1
7045	7049	1
7047	7048	1
7047	7050	1
7043	7048	1
7043	7051	1
7048	7052	1
12520	12531	1
12531	12532	1
12531	6222	1
12522	12529	1
12529	12530	1
12529	9797	1
12520	12521	1
12519	12520	1
12521	12522	1
12522	12523	1
12521	12525	1
12519	12524	1
12519	12527	1
12523	12524	1
12523	12526	1
12524	12528	1
9204	9215	1
9215	9216	1
9215	9223	1
9206	9213	1
9213	9214	1
9213	10586	1
9204	9205	1
9203	9204	1
9205	9206	1
9206	9207	1
9205	9209	1
9203	9208	1
9203	9211	1
9207	9208	1
9207	9210	1
9208	9212	1
7685	7696	1
7696	7697	1
7696	7704	1
7687	7694	1
7694	7695	1
7694	10551	1
7685	7686	1
7684	7685	1
7686	7687	1
7687	7688	1
7686	7690	1
7684	7689	1
7684	7692	1
7688	7689	1
7688	7691	1
7689	7693	1
3453	3460	1
3460	3461	1
3460	9549	1
3451	3462	1
3462	3464	1
3462	3463	1
3452	3453	1
3453	3454	1
3451	3452	1
3450	3451	1
3452	3456	1
3454	3455	1
3454	3457	1
3450	3455	1
3450	3458	1
3455	3459	1
11848	11859	1
11859	11860	1
11859	6923	1
11850	11857	1
11857	11858	1
11857	4984	1
11848	11849	1
11847	11848	1
11849	11850	1
11850	11851	1
11849	11853	1
11847	11852	1
11847	11855	1
11851	11852	1
11851	11854	1
11852	11856	1
3753	3760	1
3760	3761	1
3760	11171	1
3751	3762	1
3762	3764	1
3762	3763	1
3752	3753	1
3753	3754	1
3751	3752	1
3750	3751	1
3752	3756	1
3754	3755	1
3754	3757	1
3750	3755	1
3750	3758	1
3755	3759	1
3481	3492	1
3492	3493	1
3492	3494	1
3483	3490	1
3490	3491	1
3490	9593	1
3481	3482	1
3480	3481	1
3482	3483	1
3483	3484	1
3482	3486	1
3480	3485	1
3480	3488	1
3484	3485	1
3484	3487	1
3485	3489	1
2242	2249	1
2249	2250	1
2228	2249	1
2240	2251	1
2251	2252	1
2251	9558	1
2241	2242	1
2242	2243	1
2240	2241	1
2239	2240	1
2241	2245	1
2243	2244	1
2243	2246	1
2239	2244	1
2239	2247	1
2244	2248	1
3870	3881	1
3881	3882	1
3881	7500	1
3872	3879	1
3879	3880	1
3879	3889	1
3870	3871	1
3869	3870	1
3871	3872	1
3872	3873	1
3871	3875	1
3869	3874	1
3869	3877	1
3873	3874	1
3873	3876	1
3874	3878	1
12450	12461	1
12461	12462	1
12461	6456	1
12452	12459	1
12459	12460	1
12459	6019	1
12450	12451	1
12449	12450	1
12451	12452	1
12452	12453	1
12451	12455	1
12449	12454	1
12449	12457	1
12453	12454	1
12453	12456	1
12454	12458	1
8503	8514	1
8514	8515	1
8514	9441	1
8505	8512	1
8512	8513	1
8512	8522	1
8503	8504	1
8502	8503	1
8504	8505	1
8505	8506	1
8504	8508	1
8502	8507	1
8502	8510	1
8506	8507	1
8506	8509	1
8507	8511	1
11750	11761	1
11761	11762	1
11761	4823	1
11752	11759	1
11759	11760	1
11759	10585	1
11750	11751	1
11749	11750	1
11751	11752	1
11752	11753	1
11751	11755	1
11749	11754	1
11749	11757	1
11753	11754	1
11753	11756	1
11754	11758	1
13430	13441	1
13441	13442	1
13441	8674	1
13432	13439	1
13439	13440	1
13439	10477	1
13430	13431	1
13429	13430	1
13431	13432	1
13432	13433	1
13431	13435	1
13429	13434	1
13429	13437	1
13433	13434	1
13433	13436	1
13434	13438	1
3108	3115	1
3115	3116	1
3115	7826	1
3106	3117	1
3117	3118	1
3117	3119	1
3107	3108	1
3108	3109	1
3106	3107	1
3105	3106	1
3107	3111	1
3109	3110	1
3109	3112	1
3105	3110	1
3105	3113	1
3110	3114	1
3616	3627	1
3627	3629	1
3627	3628	1
3618	3625	1
3625	3626	1
3625	10789	1
3616	3617	1
3615	3616	1
3617	3618	1
3618	3619	1
3617	3621	1
3615	3620	1
3615	3623	1
3619	3620	1
3619	3622	1
3620	3624	1
12058	12069	1
12069	12070	1
12069	7825	1
12060	12067	1
12067	12068	1
12067	5479	1
12058	12059	1
12057	12058	1
12059	12060	1
12060	12061	1
12059	12063	1
12057	12062	1
12057	12065	1
12061	12062	1
12061	12064	1
12062	12066	1
13166	13173	1
13173	13174	1
13173	8630	1
13164	13175	1
13175	13176	1
13175	7986	1
13165	13166	1
13166	13167	1
13164	13165	1
13163	13164	1
13165	13169	1
13167	13168	1
13167	13170	1
13163	13168	1
13163	13171	1
13168	13172	1
6053	6064	1
6064	6065	1
6064	6072	1
6055	6062	1
6062	6063	1
6062	6320	1
6053	6054	1
6052	6053	1
6054	6055	1
6055	6056	1
6054	6058	1
6052	6057	1
6052	6060	1
6056	6057	1
6056	6059	1
6057	6061	1
3543	3550	1
3550	3551	1
3550	9928	1
3541	3552	1
3552	3553	1
3552	3554	1
3542	3543	1
3543	3544	1
3541	3542	1
3540	3541	1
3542	3546	1
3544	3545	1
3544	3547	1
3540	3545	1
3540	3548	1
3545	3549	1
8430	8441	1
8441	8442	1
8441	8449	1
8432	8439	1
8439	8440	1
8439	5625	1
8430	8431	1
8429	8430	1
8431	8432	1
8432	8433	1
8431	8435	1
8429	8434	1
8429	8437	1
8433	8434	1
8433	8436	1
8434	8438	1
7468	7475	1
7475	7476	1
7475	8317	1
7466	7477	1
7477	7478	1
7477	7485	1
7468	7467	1
7469	7468	1
7467	7466	1
7466	7465	1
7467	7471	1
7469	7470	1
7469	7472	1
7465	7470	1
7465	7473	1
7470	7474	1
13264	13271	1
13271	13272	1
13271	10862	1
13262	13273	1
13273	13274	1
13273	8204	1
13263	13264	1
13264	13265	1
13262	13263	1
13261	13262	1
13263	13267	1
13265	13266	1
13265	13268	1
13261	13266	1
13261	13269	1
13266	13270	1
4596	4607	1
4607	4608	1
4607	4615	1
4598	4605	1
4605	4606	1
4605	6232	1
4596	4597	1
4595	4596	1
4597	4598	1
4598	4599	1
4597	4601	1
4595	4600	1
4595	4603	1
4599	4600	1
4599	4602	1
4600	4604	1
13740	13747	1
13747	13748	1
13747	11084	1
13738	13749	1
13749	13750	1
13749	10935	1
13739	13740	1
13740	13741	1
13738	13739	1
13737	13738	1
13739	13743	1
13741	13742	1
13741	13744	1
13737	13742	1
13737	13745	1
13742	13746	1
13248	13259	1
13259	13260	1
13259	10760	1
13250	13257	1
13257	13258	1
13257	8205	1
13248	13249	1
13247	13248	1
13249	13250	1
13250	13251	1
13249	13253	1
13247	13252	1
13247	13255	1
13251	13252	1
13251	13254	1
13252	13256	1
2038	2049	1
2049	2050	1
2026	2049	1
2040	2047	1
2047	2048	1
2047	10746	1
2038	2039	1
2037	2038	1
2039	2040	1
2040	2041	1
2039	2043	1
2037	2042	1
2037	2045	1
2041	2042	1
2041	2044	1
2042	2046	1
12046	12053	1
12053	12054	1
12053	5464	1
12044	12055	1
12055	12056	1
12055	10395	1
12046	12045	1
12047	12046	1
12045	12044	1
12044	12043	1
12045	12049	1
12047	12048	1
12047	12050	1
12043	12048	1
12043	12051	1
12048	12052	1
4480	4491	1
4491	4492	1
4491	8528	1
4482	4489	1
4489	4490	1
4489	4499	1
4480	4481	1
4479	4480	1
4481	4482	1
4482	4483	1
4481	4485	1
4479	4484	1
4479	4487	1
4483	4484	1
4483	4486	1
4484	4488	1
927	934	1
934	935	1
934	8214	1
925	936	1
936	937	1
913	936	1
926	927	1
927	928	1
925	926	1
924	925	1
926	930	1
928	929	1
928	931	1
924	929	1
924	932	1
929	933	1
2911	2922	1
2922	2923	1
2922	2924	1
2913	2920	1
2920	2921	1
2920	6005	1
2911	2912	1
2910	2911	1
2912	2913	1
2913	2914	1
2912	2916	1
2910	2915	1
2910	2918	1
2914	2915	1
2914	2917	1
2915	2919	1
5980	5991	1
5991	5992	1
5991	5999	1
5982	5989	1
5989	5990	1
5989	6282	1
5980	5981	1
5979	5980	1
5981	5982	1
5982	5983	1
5981	5985	1
5979	5984	1
5979	5987	1
5983	5984	1
5983	5986	1
5984	5988	1
12870	12881	1
12881	12882	1
12881	7097	1
12872	12879	1
12879	12880	1
12879	10364	1
12870	12871	1
12869	12870	1
12871	12872	1
12872	12873	1
12871	12875	1
12869	12874	1
12869	12877	1
12873	12874	1
12873	12876	1
12874	12878	1
3663	3670	1
3670	3671	1
3670	10980	1
3661	3672	1
3672	3673	1
3672	3674	1
3662	3663	1
3663	3664	1
3661	3662	1
3660	3661	1
3662	3666	1
3664	3665	1
3664	3667	1
3660	3665	1
3660	3668	1
3665	3669	1
3708	3715	1
3715	3716	1
3715	11004	1
3706	3717	1
3717	3718	1
3717	3719	1
3707	3708	1
3708	3709	1
3706	3707	1
3705	3706	1
3707	3711	1
3709	3710	1
3709	3712	1
3705	3710	1
3705	3713	1
3710	3714	1
4395	4402	1
4402	4403	1
4402	4412	1
4393	4404	1
4404	4405	1
4404	10995	1
4394	4395	1
4395	4396	1
4393	4394	1
4392	4393	1
4394	4398	1
4396	4397	1
4396	4399	1
4392	4397	1
4392	4400	1
4397	4401	1
5644	5655	1
5655	5656	1
5655	7797	1
5646	5653	1
5653	5654	1
5653	5663	1
5644	5645	1
5643	5644	1
5645	5646	1
5646	5647	1
5645	5649	1
5643	5648	1
5643	5651	1
5647	5648	1
5647	5650	1
5648	5652	1
1497	1508	1
1508	1509	1
1508	6776	1
1499	1506	1
1506	1507	1
1510	1506	1
1497	1498	1
1496	1497	1
1498	1499	1
1499	1500	1
1498	1502	1
1496	1501	1
1496	1504	1
1500	1501	1
1500	1503	1
1501	1505	1
1018	1029	1
1029	1030	1
1006	1029	1
1020	1027	1
1027	1028	1
1027	10409	1
1018	1019	1
1017	1018	1
1019	1020	1
1020	1021	1
1019	1023	1
1017	1022	1
1017	1025	1
1021	1022	1
1021	1024	1
1022	1026	1
647	658	1
658	659	1
635	658	1
649	656	1
656	657	1
2180	656	1
647	648	1
646	647	1
648	649	1
649	650	1
648	652	1
646	651	1
646	654	1
650	651	1
650	653	1
651	655	1
11470	11481	1
11481	11482	1
11481	8499	1
11472	11479	1
11479	11480	1
11479	4315	1
11470	11471	1
11469	11470	1
11471	11472	1
11472	11473	1
11471	11475	1
11469	11474	1
11469	11477	1
11473	11474	1
11473	11476	1
11474	11478	1
4538	4549	1
4549	4550	1
4549	7373	1
4540	4547	1
4547	4548	1
4547	4557	1
4538	4539	1
4537	4538	1
4539	4540	1
4540	4541	1
4539	4543	1
4537	4542	1
4537	4545	1
4541	4542	1
4541	4544	1
4542	4546	1
10708	10715	1
10715	10716	1
10715	10725	1
10706	10717	1
10717	10718	1
10717	4824	1
10708	10707	1
10709	10708	1
10707	10706	1
10706	10705	1
10707	10711	1
10709	10710	1
10709	10712	1
10705	10710	1
10705	10713	1
10710	10714	1
6140	6151	1
6151	6152	1
6151	10389	1
6142	6149	1
6149	6150	1
6149	6159	1
6140	6141	1
6139	6140	1
6141	6142	1
6142	6143	1
6141	6145	1
6139	6144	1
6139	6147	1
6143	6144	1
6143	6146	1
6144	6148	1
13656	13663	1
13663	13664	1
13663	10088	1
13654	13665	1
13665	13666	1
13665	10541	1
13656	13655	1
13657	13656	1
13655	13654	1
13654	13653	1
13655	13659	1
13657	13658	1
13657	13660	1
13653	13658	1
13653	13661	1
13658	13662	1
6827	6834	1
6834	6835	1
6834	6844	1
6825	6836	1
6836	6837	1
6836	4533	1
6826	6827	1
6827	6828	1
6825	6826	1
6824	6825	1
6826	6830	1
6828	6829	1
6828	6831	1
6824	6829	1
6824	6832	1
6829	6833	1
13570	13581	1
13581	13582	1
13581	10702	1
13572	13579	1
13579	13580	1
13579	9402	1
13570	13571	1
13569	13570	1
13571	13572	1
13572	13573	1
13571	13575	1
13569	13574	1
13569	13577	1
13573	13574	1
13573	13576	1
13574	13578	1
1761	1768	1
1768	1769	1
1747	1768	1
1759	1770	1
1770	1771	1
1770	8629	1
1760	1761	1
1761	1762	1
1759	1760	1
1758	1759	1
1760	1764	1
1762	1763	1
1762	1765	1
1758	1763	1
1758	1766	1
1763	1767	1
6752	6763	1
6763	6764	1
6763	10083	1
6754	6761	1
6761	6762	1
6761	6771	1
6752	6753	1
6751	6752	1
6753	6754	1
6754	6755	1
6753	6757	1
6751	6756	1
6751	6759	1
6755	6756	1
6755	6758	1
6756	6760	1
369	380	1
380	381	1
380	8273	1
371	378	1
378	379	1
357	378	1
369	370	1
368	369	1
370	371	1
371	372	1
370	374	1
368	373	1
368	376	1
372	373	1
372	375	1
373	377	1
3168	3175	1
3175	3176	1
3175	8376	1
3166	3177	1
3177	3178	1
3177	3179	1
3167	3168	1
3168	3169	1
3166	3167	1
3165	3166	1
3167	3171	1
3169	3170	1
3169	3172	1
3165	3170	1
3165	3173	1
3170	3174	1
2161	2172	1
2172	2173	1
2149	2172	1
2163	2170	1
2170	2171	1
2170	4281	1
2161	2162	1
2160	2161	1
2162	2163	1
2163	2164	1
2162	2166	1
2160	2165	1
2160	2168	1
2164	2165	1
2164	2167	1
2165	2169	1
11176	11187	1
11187	11188	1
11187	4287	1
11178	11185	1
11185	11186	1
11185	3850	1
11176	11177	1
11175	11176	1
11177	11178	1
11178	11179	1
11177	11181	1
11175	11180	1
11175	11183	1
11179	11180	1
11179	11182	1
11180	11184	1
2052	2063	1
2063	2064	1
2065	2063	1
2054	2061	1
2061	2062	1
2061	6135	1
2052	2053	1
2051	2052	1
2053	2054	1
2054	2055	1
2053	2057	1
2051	2056	1
2051	2059	1
2055	2056	1
2055	2058	1
2056	2060	1
12620	12627	1
12627	12628	1
12627	10731	1
12618	12629	1
12629	12630	1
12629	6341	1
12620	12619	1
12621	12620	1
12619	12618	1
12618	12617	1
12619	12623	1
12621	12622	1
12621	12624	1
12617	12622	1
12617	12625	1
12622	12626	1
6927	6938	1
6938	6939	1
6938	6946	1
6929	6936	1
6936	6937	1
2000	6936	1
6927	6928	1
6926	6927	1
6928	6929	1
6929	6930	1
6928	6932	1
6926	6931	1
6926	6934	1
6930	6931	1
6930	6933	1
6931	6935	1
11794	11801	1
11801	11802	1
11801	8966	1
11792	11803	1
11803	11804	1
11803	4867	1
11793	11794	1
11794	11795	1
11792	11793	1
11791	11792	1
11793	11797	1
11795	11796	1
11795	11798	1
11791	11796	1
11791	11799	1
11796	11800	1
1884	1891	1
1891	1892	1
1891	5342	1
1882	1893	1
1893	1894	1
1870	1893	1
1884	1883	1
1885	1884	1
1883	1882	1
1882	1881	1
1883	1887	1
1885	1886	1
1885	1888	1
1881	1886	1
1881	1889	1
1886	1890	1
12142	12153	1
12153	12154	1
12153	5581	1
12144	12151	1
12151	12152	1
12151	9431	1
12142	12143	1
12141	12142	1
12143	12144	1
12144	12145	1
12143	12147	1
12141	12146	1
12141	12149	1
12145	12146	1
12145	12148	1
12146	12150	1
3243	3250	1
3250	3251	1
3250	8746	1
3241	3252	1
3252	3253	1
3252	3254	1
3242	3243	1
3243	3244	1
3241	3242	1
3240	3241	1
3242	3246	1
3244	3245	1
3244	3247	1
3240	3245	1
3240	3248	1
3245	3249	1
1666	1677	1
1677	1678	1
1654	1677	1
1668	1675	1
1675	1676	1
1675	9827	1
1666	1667	1
1665	1666	1
1667	1668	1
1668	1669	1
1667	1671	1
1665	1670	1
1665	1673	1
1669	1670	1
1669	1672	1
1670	1674	1
9029	9040	1
9040	9041	1
9040	9048	1
9031	9038	1
9038	9039	1
9038	10907	1
9029	9030	1
9028	9029	1
9030	9031	1
9031	9032	1
9030	9034	1
9028	9033	1
9028	9036	1
9032	9033	1
9032	9035	1
9033	9037	1
12436	12447	1
12447	12448	1
12447	8484	1
12438	12445	1
12445	12446	1
12445	6020	1
12436	12437	1
12435	12436	1
12437	12438	1
12438	12439	1
12437	12441	1
12435	12440	1
12435	12443	1
12439	12440	1
12439	12442	1
12440	12444	1
3333	3340	1
3340	3341	1
3340	9069	1
3331	3342	1
3342	3344	1
3342	3343	1
3332	3333	1
3333	3334	1
3331	3332	1
3330	3331	1
3332	3336	1
3334	3335	1
3334	3337	1
3330	3335	1
3330	3338	1
3335	3339	1
2671	2682	1
2682	2684	1
2682	2683	1
2673	2680	1
2680	2681	1
2680	4388	1
2671	2672	1
2670	2671	1
2672	2673	1
2673	2674	1
2672	2676	1
2670	2675	1
2670	2678	1
2674	2675	1
2674	2677	1
2675	2679	1
2641	2652	1
2652	2653	1
2652	2654	1
2643	2650	1
2650	2651	1
2650	4068	1
2641	2642	1
2640	2641	1
2642	2643	1
2643	2644	1
2642	2646	1
2640	2645	1
2640	2648	1
2644	2645	1
2644	2647	1
2645	2649	1
13584	13595	1
13595	13596	1
13595	10117	1
13586	13593	1
13593	13594	1
13593	9651	1
13584	13585	1
13583	13584	1
13585	13586	1
13586	13587	1
13585	13589	1
13583	13588	1
13583	13591	1
13587	13588	1
13587	13590	1
13588	13592	1
7349	7360	1
7360	7361	1
7360	7368	1
7351	7358	1
7358	7359	1
7358	9053	1
7349	7350	1
7348	7349	1
7350	7351	1
7351	7352	1
7350	7354	1
7348	7353	1
7348	7356	1
7352	7353	1
7352	7355	1
7353	7357	1
13514	13525	1
13525	13526	1
13525	9287	1
13516	13523	1
13523	13524	1
13523	9010	1
13514	13515	1
13513	13514	1
13515	13516	1
13516	13517	1
13515	13519	1
13513	13518	1
13513	13521	1
13517	13518	1
13517	13520	1
13518	13522	1
11834	11845	1
11845	11846	1
11845	4925	1
11836	11843	1
11843	11844	1
11843	5246	1
11834	11835	1
11833	11834	1
11835	11836	1
11836	11837	1
11835	11839	1
11833	11838	1
11833	11841	1
11837	11838	1
11837	11840	1
11838	11842	1
12548	12559	1
12559	12560	1
12559	7564	1
12550	12557	1
12557	12558	1
12557	6237	1
12548	12549	1
12547	12548	1
12549	12550	1
12550	12551	1
12549	12553	1
12547	12552	1
12547	12555	1
12551	12552	1
12551	12554	1
12552	12556	1
7830	7841	1
7841	7842	1
7841	7849	1
7832	7839	1
7839	7840	1
7839	7951	1
7830	7831	1
7829	7830	1
7831	7832	1
7832	7833	1
7831	7835	1
7829	7834	1
7829	7837	1
7833	7834	1
7833	7836	1
7834	7838	1
8781	8792	1
8792	8793	1
8792	5669	1
8783	8790	1
8790	8791	1
8790	8800	1
8781	8782	1
8780	8781	1
8782	8783	1
8783	8784	1
8782	8786	1
8780	8785	1
8780	8788	1
8784	8785	1
8784	8787	1
8785	8789	1
11204	11215	1
11215	11216	1
11215	8322	1
11206	11213	1
11213	11214	1
11213	3866	1
11204	11205	1
11203	11204	1
11205	11206	1
11206	11207	1
11205	11209	1
11203	11208	1
11203	11211	1
11207	11208	1
11207	11210	1
11208	11212	1
4683	4694	1
4694	4695	1
4694	4702	1
4685	4692	1
4692	4693	1
4692	7534	1
4683	4684	1
4682	4683	1
4684	4685	1
4685	4686	1
4684	4688	1
4682	4687	1
4682	4690	1
4686	4687	1
4686	4689	1
4687	4691	1
2791	2802	1
2802	2804	1
2802	2803	1
2793	2800	1
2800	2801	1
2800	5303	1
2791	2792	1
2790	2791	1
2792	2793	1
2793	2794	1
2792	2796	1
2790	2795	1
2790	2798	1
2794	2795	1
2794	2797	1
2795	2799	1
1544	1555	1
1555	1556	1
1532	1555	1
1546	1553	1
1553	1554	1
671	1553	1
1544	1545	1
1543	1544	1
1545	1546	1
1546	1547	1
1545	1549	1
1543	1548	1
1543	1551	1
1547	1548	1
1547	1550	1
1548	1552	1
11358	11369	1
11369	11370	1
11369	9505	1
11360	11367	1
11367	11368	1
11367	4155	1
11358	11359	1
11357	11358	1
11359	11360	1
11360	11361	1
11359	11363	1
11357	11362	1
11357	11365	1
11361	11362	1
11361	11364	1
11362	11366	1
4451	4462	1
4462	4463	1
4462	4470	1
4453	4460	1
4460	4461	1
4460	6077	1
4451	4452	1
4450	4451	1
4452	4453	1
4453	4454	1
4452	4456	1
4450	4455	1
4450	4458	1
4454	4455	1
4454	4457	1
4455	4459	1
8136	8147	1
8147	8148	1
8147	8155	1
8138	8145	1
8145	8146	1
8145	5187	1
8136	8137	1
8135	8136	1
8137	8138	1
8138	8139	1
8137	8141	1
8135	8140	1
8135	8143	1
8139	8140	1
8139	8142	1
8140	8144	1
2956	2967	1
2967	2969	1
2967	2968	1
2958	2965	1
2965	2966	1
2965	6559	1
2956	2957	1
2955	2956	1
2957	2958	1
2958	2959	1
2957	2961	1
2955	2960	1
2955	2963	1
2959	2960	1
2959	2962	1
2960	2964	1
7888	7899	1
7899	7900	1
7899	7907	1
7890	7897	1
7897	7898	1
7897	4097	1
7888	7889	1
7887	7888	1
7889	7890	1
7890	7891	1
7889	7893	1
7887	7892	1
7887	7895	1
7891	7892	1
7891	7894	1
7892	7896	1
12016	12027	1
12027	12028	1
12027	5376	1
12018	12025	1
12025	12026	1
12025	9548	1
12016	12017	1
12015	12016	1
12017	12018	1
12018	12019	1
12017	12021	1
12015	12020	1
12015	12023	1
12019	12020	1
12019	12022	1
12020	12024	1
6854	6865	1
6865	6866	1
6865	6873	1
6856	6863	1
6863	6864	1
6863	6558	1
6854	6855	1
6853	6854	1
6855	6856	1
6856	6857	1
6855	6859	1
6853	6858	1
6853	6861	1
6857	6858	1
6857	6860	1
6858	6862	1
338	349	1
349	350	1
349	6101	1
340	347	1
347	348	1
326	347	1
338	339	1
337	338	1
339	340	1
340	341	1
339	343	1
337	342	1
337	345	1
341	342	1
341	344	1
342	346	1
11428	11439	1
11439	11440	1
11439	4242	1
11430	11437	1
11437	11438	1
1457	11437	1
11428	11429	1
11427	11428	1
11429	11430	1
11430	11431	1
11429	11433	1
11427	11432	1
11427	11435	1
11431	11432	1
11431	11434	1
11432	11436	1
7743	7754	1
7754	7755	1
7754	9973	1
7745	7752	1
7752	7753	1
7752	7762	1
7743	7744	1
7742	7743	1
7744	7745	1
7745	7746	1
7744	7748	1
7742	7747	1
7742	7750	1
7746	7747	1
7746	7749	1
7747	7751	1
4509	4520	1
4520	4521	1
4520	4528	1
4511	4518	1
4518	4519	1
4518	8937	1
4509	4510	1
4508	4509	1
4510	4511	1
4511	4512	1
4510	4514	1
4508	4513	1
4508	4516	1
4512	4513	1
4512	4515	1
4513	4517	1
13612	13623	1
13623	13624	1
13623	11038	1
13614	13621	1
13621	13622	1
13621	9885	1
13612	13613	1
13611	13612	1
13613	13614	1
13614	13615	1
13613	13617	1
13611	13616	1
13611	13619	1
13615	13616	1
13615	13618	1
13616	13620	1
6490	6501	1
6501	6502	1
6501	6509	1
6492	6499	1
6499	6500	1
6499	8059	1
6490	6491	1
6489	6490	1
6491	6492	1
6492	6493	1
6491	6495	1
6489	6494	1
6489	6497	1
6493	6494	1
6493	6496	1
6494	6498	1
6345	6356	1
6356	6357	1
6356	6364	1
6347	6354	1
6354	6355	1
6354	10234	1
6345	6346	1
6344	6345	1
6346	6347	1
6347	6348	1
6346	6350	1
6344	6349	1
6344	6352	1
6348	6349	1
6348	6351	1
6349	6353	1
3646	3657	1
3657	3659	1
3657	3658	1
3648	3655	1
3655	3656	1
3655	10964	1
3646	3647	1
3645	3646	1
3647	3648	1
3648	3649	1
3647	3651	1
3645	3650	1
3645	3653	1
3649	3650	1
3649	3652	1
3650	3654	1
12464	12475	1
12475	12476	1
12475	6078	1
12466	12473	1
12473	12474	1
12473	10979	1
12464	12465	1
12463	12464	1
12465	12466	1
12466	12467	1
12465	12469	1
12463	12468	1
12463	12471	1
12467	12468	1
12467	12470	1
12468	12472	1
2518	2529	1
2529	2530	1
2529	7383	1
2520	2527	1
2527	2528	1
2506	2527	1
2518	2519	1
2517	2518	1
2519	2520	1
2520	2521	1
2519	2523	1
2517	2522	1
2517	2525	1
2521	2522	1
2521	2524	1
2522	2526	1
3001	3012	1
3012	3014	1
3012	3013	1
3003	3010	1
3010	3011	1
3010	6917	1
3001	3002	1
3000	3001	1
3002	3003	1
3003	3004	1
3002	3006	1
3000	3005	1
3000	3008	1
3004	3005	1
3004	3007	1
3005	3009	1
6563	6574	1
6574	6575	1
6574	6582	1
6565	6572	1
6572	6573	1
6572	8097	1
6563	6564	1
6562	6563	1
6564	6565	1
6565	6566	1
6564	6568	1
6562	6567	1
6562	6570	1
6566	6567	1
6566	6569	1
6567	6571	1
987	998	1
998	999	1
998	9695	1
989	996	1
996	997	1
975	996	1
987	988	1
986	987	1
988	989	1
989	990	1
988	992	1
986	991	1
986	994	1
990	991	1
990	993	1
991	995	1
771	782	1
782	783	1
759	782	1
773	780	1
780	781	1
1295	780	1
771	772	1
770	771	1
772	773	1
773	774	1
772	776	1
770	775	1
770	778	1
774	775	1
774	777	1
775	779	1
1331	1338	1
1338	1339	1
1317	1338	1
1329	1340	1
1340	1341	1
1340	5575	1
1331	1330	1
1332	1331	1
1330	1329	1
1329	1328	1
1330	1334	1
1332	1333	1
1332	1335	1
1328	1333	1
1328	1336	1
1333	1337	1
3781	3792	1
3792	3794	1
3792	3793	1
3783	3790	1
3790	3791	1
1476	3790	1
3781	3782	1
3780	3781	1
3782	3783	1
3783	3784	1
3782	3786	1
3780	3785	1
3780	3788	1
3784	3785	1
3784	3787	1
3785	3789	1
12128	12139	1
12139	12140	1
12139	9636	1
12130	12137	1
12137	12138	1
12137	5580	1
12128	12129	1
12127	12128	1
12129	12130	1
12130	12131	1
12129	12133	1
12127	12132	1
12127	12135	1
12131	12132	1
12131	12134	1
12132	12136	1
13348	13355	1
13355	13356	1
13355	8601	1
13346	13357	1
13357	13358	1
13357	8367	1
13348	13347	1
13349	13348	1
13347	13346	1
13346	13345	1
13347	13351	1
13349	13350	1
13349	13352	1
13345	13350	1
13345	13353	1
13350	13354	1
12086	12097	1
12097	12098	1
12097	5537	1
12088	12095	1
12095	12096	1
12095	5726	1
12086	12087	1
12085	12086	1
12087	12088	1
12088	12089	1
12087	12091	1
12085	12090	1
12085	12093	1
12089	12090	1
12089	12092	1
12090	12094	1
9175	9186	1
9186	9187	1
9186	9194	1
9177	9184	1
9184	9185	1
9184	4897	1
9175	9176	1
9174	9175	1
9176	9177	1
9177	9178	1
9176	9180	1
9174	9179	1
9174	9182	1
9178	9179	1
9178	9181	1
9179	9183	1
1189	1200	1
1200	1201	1
1200	5809	1
1191	1198	1
1198	1199	1
1177	1198	1
1189	1190	1
1188	1189	1
1190	1191	1
1191	1192	1
1190	1194	1
1188	1193	1
1188	1196	1
1192	1193	1
1192	1195	1
1193	1197	1
12898	12909	1
12909	12910	1
12909	7185	1
12900	12907	1
12907	12908	1
12907	7403	1
12898	12899	1
12897	12898	1
12899	12900	1
12900	12901	1
12899	12903	1
12897	12902	1
12897	12905	1
12901	12902	1
12901	12904	1
12902	12906	1
3496	3507	1
3507	3508	1
3507	3509	1
3498	3505	1
3505	3506	1
3505	9652	1
3496	3497	1
3495	3496	1
3497	3498	1
3498	3499	1
3497	3501	1
3495	3500	1
3495	3503	1
3499	3500	1
3499	3502	1
3500	3504	1
3078	3085	1
3085	3086	1
3085	7573	1
3076	3087	1
3087	3089	1
3087	3088	1
3077	3078	1
3078	3079	1
3076	3077	1
3075	3076	1
3077	3081	1
3079	3080	1
3079	3082	1
3075	3080	1
3075	3083	1
3080	3084	1
12758	12769	1
12769	12770	1
12769	6850	1
12760	12767	1
12767	12768	1
12767	6719	1
12758	12759	1
12757	12758	1
12759	12760	1
12760	12761	1
12759	12763	1
12757	12762	1
12757	12765	1
12761	12762	1
12761	12764	1
12762	12766	1
3091	3102	1
3102	3104	1
3102	3103	1
3093	3100	1
3100	3101	1
3100	7646	1
3091	3092	1
3090	3091	1
3092	3093	1
3093	3094	1
3092	3096	1
3090	3095	1
3090	3098	1
3094	3095	1
3094	3097	1
3095	3099	1
8107	8118	1
8118	8119	1
8118	8126	1
8109	8116	1
8116	8117	1
8116	8103	1
8107	8108	1
8106	8107	1
8108	8109	1
8109	8110	1
8108	8112	1
8106	8111	1
8106	8114	1
8110	8111	1
8110	8113	1
8111	8115	1
12492	12503	1
12503	12504	1
12503	6164	1
12494	12501	1
12501	12502	1
12501	7068	1
12492	12493	1
12491	12492	1
12493	12494	1
12494	12495	1
12493	12497	1
12491	12496	1
12491	12499	1
12495	12496	1
12495	12498	1
12496	12500	1
4073	4084	1
4084	4085	1
4084	4092	1
4075	4082	1
4082	4083	1
4082	9025	1
4073	4074	1
4072	4073	1
4074	4075	1
4075	4076	1
4074	4078	1
4072	4077	1
4072	4080	1
4076	4077	1
4076	4079	1
4077	4081	1
11736	11747	1
11747	11748	1
11747	4794	1
11738	11745	1
11745	11746	1
11745	6849	1
11736	11737	1
11735	11736	1
11737	11738	1
11738	11739	1
11737	11741	1
11735	11740	1
11735	11743	1
11739	11740	1
11739	11742	1
11740	11744	1
9378	9389	1
9389	9390	1
9389	9397	1
9380	9387	1
9387	9388	1
9387	10205	1
9378	9379	1
9377	9378	1
9379	9380	1
9380	9381	1
9379	9383	1
9377	9382	1
9377	9385	1
9381	9382	1
9381	9384	1
9382	9386	1
12786	12797	1
12797	12798	1
1690	12797	1
12788	12795	1
12795	12796	1
12795	6777	1
12786	12787	1
12785	12786	1
12787	12788	1
12788	12789	1
12787	12791	1
12785	12790	1
12785	12793	1
12789	12790	1
12789	12792	1
12790	12794	1
13794	13805	1
13805	13806	1
1969	13805	1
13796	13803	1
13803	13804	1
528	13803	1
13794	13795	1
13793	13794	1
13795	13796	1
13796	13797	1
13795	13799	1
13793	13798	1
13793	13801	1
13797	13798	1
13797	13800	1
13798	13802	1
10502	10513	1
10513	10514	1
10513	10521	1
10504	10511	1
10511	10512	1
10511	6193	1
10502	10503	1
10501	10502	1
10503	10504	1
10504	10505	1
10503	10507	1
10501	10506	1
10501	10509	1
10505	10506	1
10505	10508	1
10506	10510	1
9597	9608	1
9608	9609	1
9608	9616	1
9599	9606	1
9606	9607	1
9606	4156	1
9597	9598	1
9596	9597	1
9598	9599	1
9599	9600	1
9598	9602	1
9596	9601	1
9596	9604	1
9600	9601	1
9600	9603	1
9601	9605	1
3798	3805	1
3805	3806	1
2387	3805	1
3796	3807	1
3807	3808	1
3807	3809	1
3797	3798	1
3798	3799	1
3796	3797	1
3795	3796	1
3797	3801	1
3799	3800	1
3799	3802	1
3795	3800	1
3795	3803	1
3800	3804	1
12478	12489	1
12489	12490	1
12489	6107	1
12480	12487	1
12487	12488	1
12487	7579	1
12478	12479	1
12477	12478	1
12479	12480	1
12480	12481	1
12479	12483	1
12477	12482	1
12477	12485	1
12481	12482	1
12481	12484	1
12482	12486	1
13416	13427	1
13427	13428	1
13427	8644	1
13418	13425	1
13425	13426	1
13425	9666	1
13416	13417	1
13415	13416	1
13417	13418	1
13418	13419	1
13417	13421	1
13415	13420	1
13415	13423	1
13419	13420	1
13419	13422	1
13420	13424	1
616	627	1
627	628	1
604	627	1
618	625	1
625	626	1
625	4373	1
616	617	1
615	616	1
617	618	1
618	619	1
617	621	1
615	620	1
615	623	1
619	620	1
619	622	1
620	624	1
13388	13399	1
13399	13400	1
13399	8411	1
13390	13397	1
13397	13398	1
13397	8483	1
13388	13389	1
13387	13388	1
13389	13390	1
13390	13391	1
13389	13393	1
13387	13392	1
13387	13395	1
13391	13392	1
13391	13394	1
13392	13396	1
12928	12935	1
12935	12936	1
12935	8015	1
12926	12937	1
12937	12938	1
12937	7344	1
12928	12927	1
12929	12928	1
12927	12926	1
12926	12925	1
12927	12931	1
12929	12930	1
12929	12932	1
12925	12930	1
12925	12933	1
12930	12934	1
2778	2785	1
2785	2786	1
2785	5245	1
2776	2787	1
2787	2788	1
2787	2789	1
2777	2778	1
2778	2779	1
2776	2777	1
2775	2776	1
2777	2781	1
2779	2780	1
2779	2782	1
2775	2780	1
2775	2783	1
2780	2784	1
1790	1801	1
1801	1802	1
1801	10394	1
1792	1799	1
1799	1800	1
1778	1799	1
1790	1791	1
1789	1790	1
1791	1792	1
1792	1793	1
1791	1795	1
1789	1794	1
1789	1797	1
1793	1794	1
1793	1796	1
1794	1798	1
11088	11099	1
11099	11100	1
2559	11099	1
11090	11097	1
11097	11098	1
11097	11107	1
11088	11089	1
11087	11088	1
11089	11090	1
11090	11091	1
11089	11093	1
11087	11092	1
11087	11095	1
11091	11092	1
11091	11094	1
11092	11096	1
878	889	1
889	890	1
889	9200	1
880	887	1
887	888	1
891	887	1
878	879	1
877	878	1
879	880	1
880	881	1
879	883	1
877	882	1
877	885	1
881	882	1
881	884	1
882	886	1
3556	3567	1
3567	3568	1
3567	3569	1
3558	3565	1
3565	3566	1
3565	10030	1
3556	3557	1
3555	3556	1
3557	3558	1
3558	3559	1
3557	3561	1
3555	3560	1
3555	3563	1
3559	3560	1
3559	3562	1
3560	3564	1
12968	12979	1
12979	12980	1
12979	7404	1
12970	12977	1
12977	12978	1
12977	8858	1
12968	12969	1
12967	12968	1
12969	12970	1
12970	12971	1
12969	12973	1
12967	12972	1
12967	12975	1
12971	12972	1
12971	12974	1
12972	12976	1
2456	2467	1
2467	2468	1
2467	8455	1
2458	2465	1
2465	2466	1
2444	2465	1
2456	2457	1
2455	2456	1
2457	2458	1
2458	2459	1
2457	2461	1
2455	2460	1
2455	2463	1
2459	2460	1
2459	2462	1
2460	2464	1
9407	9418	1
9418	9419	1
9418	9426	1
9409	9416	1
9416	9417	1
9416	10833	1
9407	9408	1
9406	9407	1
9408	9409	1
9409	9410	1
9408	9412	1
9406	9411	1
9406	9414	1
9410	9411	1
9410	9413	1
9411	9415	1
12340	12347	1
12347	12348	1
12347	5843	1
12338	12349	1
12349	12350	1
12349	8761	1
12340	12339	1
12341	12340	1
12339	12338	1
12338	12337	1
12339	12343	1
12341	12342	1
12341	12344	1
12337	12342	1
12337	12345	1
12342	12346	1
8224	8235	1
8235	8236	1
8235	8243	1
8226	8233	1
8233	8234	1
8233	9944	1
8224	8225	1
8223	8224	1
8225	8226	1
8226	8227	1
8225	8229	1
8223	8228	1
8223	8231	1
8227	8228	1
8227	8230	1
8228	8232	1
13556	13567	1
13567	13568	1
13567	9475	1
13558	13565	1
13565	13566	1
13565	9142	1
13556	13557	1
13555	13556	1
13557	13558	1
13558	13559	1
13557	13561	1
13555	13560	1
13555	13563	1
13559	13560	1
13559	13562	1
13560	13564	1
9671	9682	1
9682	9683	1
9682	5057	1
9673	9680	1
9680	9681	1
9680	9696	1
9671	9672	1
9670	9671	1
9672	9673	1
9673	9674	1
9672	9676	1
9670	9675	1
9670	9678	1
9674	9675	1
9674	9677	1
9675	9679	1
4044	4055	1
4055	4056	1
4055	4063	1
4046	4053	1
4053	4054	1
4053	7637	1
4044	4045	1
4043	4044	1
4045	4046	1
4046	4047	1
4045	4049	1
4043	4048	1
4043	4051	1
4047	4048	1
4047	4050	1
4048	4052	1
8578	8585	1
8585	8586	1
2590	8585	1
8576	8587	1
8587	8588	1
8587	8595	1
8578	8577	1
8579	8578	1
8577	8576	1
8576	8575	1
8577	8581	1
8579	8580	1
8579	8582	1
8575	8580	1
8575	8583	1
8580	8584	1
7656	7667	1
7667	7668	1
7667	7675	1
7658	7665	1
7665	7666	1
7665	7942	1
7656	7657	1
7655	7656	1
7657	7658	1
7658	7659	1
7657	7661	1
7655	7660	1
7655	7663	1
7659	7660	1
7659	7662	1
7660	7664	1
11778	11789	1
11789	11790	1
11789	8965	1
11780	11787	1
11787	11788	1
11787	4868	1
11778	11779	1
11777	11778	1
11779	11780	1
11780	11781	1
11779	11783	1
11777	11782	1
11777	11785	1
11781	11782	1
11781	11784	1
11782	11786	1
11806	11817	1
11817	11818	1
11817	9344	1
11808	11815	1
11815	11816	1
11815	4896	1
11806	11807	1
11805	11806	1
11807	11808	1
11808	11809	1
11807	11811	1
11805	11810	1
11805	11813	1
11809	11810	1
11809	11812	1
11810	11814	1
3899	3910	1
3910	3911	1
3910	3918	1
3901	3908	1
3908	3909	1
3908	9258	1
3899	3900	1
3898	3899	1
3900	3901	1
3901	3902	1
3900	3904	1
3898	3903	1
3898	3906	1
3902	3903	1
3902	3905	1
3903	3907	1
9480	9491	1
9491	9492	1
9491	7956	1
9482	9489	1
9489	9490	1
9489	9499	1
9480	9481	1
9479	9480	1
9481	9482	1
9482	9483	1
9481	9485	1
9479	9484	1
9479	9487	1
9483	9484	1
9483	9486	1
9484	9488	1
4625	4636	1
4636	4637	1
4636	4644	1
4627	4634	1
4634	4635	1
4634	8219	1
4625	4626	1
4624	4625	1
4626	4627	1
4627	4628	1
4626	4630	1
4624	4629	1
4624	4632	1
4628	4629	1
4628	4631	1
4629	4633	1
12660	12671	1
12671	12672	1
12671	10863	1
12662	12669	1
12669	12670	1
12669	6486	1
12660	12661	1
12659	12660	1
12661	12662	1
12662	12663	1
12661	12665	1
12659	12664	1
12659	12667	1
12663	12664	1
12663	12666	1
12664	12668	1
12912	12923	1
12923	12924	1
12923	7286	1
12914	12921	1
12921	12922	1
12921	10527	1
12912	12913	1
12911	12912	1
12913	12914	1
12914	12915	1
12913	12917	1
12911	12916	1
12911	12919	1
12915	12916	1
12915	12918	1
12916	12920	1
709	720	1
720	721	1
697	720	1
711	718	1
718	719	1
718	6136	1
709	710	1
708	709	1
710	711	1
711	712	1
710	714	1
708	713	1
708	716	1
712	713	1
712	715	1
713	717	1
12184	12195	1
12195	12196	1
2154	12195	1
12186	12193	1
12193	12194	1
12193	5624	1
12184	12185	1
12183	12184	1
12185	12186	1
12186	12187	1
12185	12189	1
12183	12188	1
12183	12191	1
12187	12188	1
12187	12190	1
12188	12192	1
13220	13231	1
13231	13232	1
13231	8190	1
13222	13229	1
13229	13230	1
2325	13229	1
13220	13221	1
13219	13220	1
13221	13222	1
13222	13223	1
13221	13225	1
13219	13224	1
13219	13227	1
13223	13224	1
13223	13226	1
13224	13228	1
7291	7302	1
7302	7303	1
7302	8493	1
7293	7300	1
7300	7301	1
7300	7310	1
7291	7292	1
7290	7291	1
7292	7293	1
7293	7294	1
7292	7296	1
7290	7295	1
7290	7298	1
7294	7295	1
7294	7297	1
7295	7299	1
13668	13679	1
13679	13680	1
13679	10147	1
13670	13677	1
13677	13678	1
2418	13677	1
13668	13669	1
13667	13668	1
13669	13670	1
13670	13671	1
13669	13673	1
13667	13672	1
13667	13675	1
13671	13672	1
13671	13674	1
13672	13676	1
1835	1846	1
1846	1847	1
1846	9199	1
1837	1844	1
1844	1845	1
1848	1844	1
1835	1836	1
1834	1835	1
1836	1837	1
1837	1838	1
1836	1840	1
1834	1839	1
1834	1842	1
1838	1839	1
1838	1841	1
1839	1843	1
12324	12335	1
12335	12336	1
12335	5814	1
12326	12333	1
12333	12334	1
1084	12333	1
12324	12325	1
12323	12324	1
12325	12326	1
12326	12327	1
12325	12329	1
12323	12328	1
12323	12331	1
12327	12328	1
12327	12330	1
12328	12332	1
1436	1447	1
1447	1448	1
1449	1447	1
1438	1445	1
1445	1446	1
1445	6990	1
1436	1437	1
1435	1436	1
1437	1438	1
1438	1439	1
1437	1441	1
1435	1440	1
1435	1443	1
1439	1440	1
1439	1442	1
1440	1444	1
5078	5085	1
5085	5086	1
5085	10483	1
5076	5087	1
5087	5088	1
5087	5095	1
5077	5078	1
5078	5079	1
5076	5077	1
5075	5076	1
5077	5081	1
5079	5080	1
5079	5082	1
5075	5080	1
5075	5083	1
5080	5084	1
84	95	1
95	96	1
74	95	1
86	93	1
93	94	1
93	7024	1
84	85	1
83	84	1
85	86	1
86	87	1
85	89	1
83	88	1
83	91	1
87	88	1
87	90	1
88	92	1
8810	8821	1
8821	8822	1
8821	8829	1
8812	8819	1
8819	8820	1
8819	5377	1
8810	8811	1
8809	8810	1
8811	8812	1
8812	8813	1
8811	8815	1
8809	8814	1
8809	8817	1
8813	8814	1
8813	8816	1
8814	8818	1
1222	1229	1
1229	1230	1
1208	1229	1
1220	1231	1
1231	1233	1
1231	1232	1
1221	1222	1
1222	1223	1
1220	1221	1
1219	1220	1
1221	1225	1
1223	1224	1
1223	1226	1
1219	1224	1
1219	1227	1
1224	1228	1
13808	13819	1
13819	13820	1
1937	13819	1
13810	13817	1
13817	13818	1
733	13817	1
13808	13809	1
13807	13808	1
13809	13810	1
13810	13811	1
13809	13813	1
13807	13812	1
13807	13815	1
13811	13812	1
13811	13814	1
13812	13816	1
1110	1121	1
1121	1122	1
1121	7039	1
1112	1119	1
1119	1120	1
1098	1119	1
1110	1111	1
1109	1110	1
1111	1112	1
1112	1113	1
1111	1115	1
1109	1114	1
1109	1117	1
1113	1114	1
1113	1116	1
1114	1118	1
11694	11705	1
11705	11706	1
11705	4737	1
11696	11703	1
11703	11704	1
2356	11703	1
11694	11695	1
11693	11694	1
11695	11696	1
11696	11697	1
11695	11699	1
11693	11698	1
11693	11701	1
11697	11698	1
11697	11700	1
11698	11702	1
9904	9915	1
9915	9916	1
9915	9923	1
9906	9913	1
9913	9914	1
9913	5946	1
9904	9905	1
9903	9904	1
9905	9906	1
9906	9907	1
9905	9909	1
9903	9908	1
9903	9911	1
9907	9908	1
9907	9910	1
9908	9912	1
11512	11523	1
11523	11524	1
11523	9929	1
11514	11521	1
11521	11522	1
11521	4389	1
11512	11513	1
11511	11512	1
11513	11514	1
11514	11515	1
11513	11517	1
11511	11516	1
11511	11519	1
11515	11516	1
11515	11518	1
11516	11520	1
400	411	1
411	412	1
411	11083	1
402	409	1
409	410	1
388	409	1
400	401	1
399	400	1
401	402	1
402	403	1
401	405	1
399	404	1
399	407	1
403	404	1
403	406	1
404	408	1
464	471	1
471	472	1
450	471	1
462	473	1
473	474	1
473	4418	1
463	464	1
464	465	1
462	463	1
461	462	1
463	467	1
465	466	1
465	468	1
461	466	1
461	469	1
466	470	1
1483	1494	1
1494	1495	1
1494	10404	1
1485	1492	1
1492	1493	1
1471	1492	1
1483	1484	1
1482	1483	1
1484	1485	1
1485	1486	1
1484	1488	1
1482	1487	1
1482	1490	1
1486	1487	1
1486	1489	1
1487	1491	1
833	844	1
844	845	1
821	844	1
835	842	1
842	843	1
578	842	1
833	834	1
832	833	1
834	835	1
835	836	1
834	838	1
832	837	1
832	840	1
836	837	1
836	839	1
837	841	1
2731	2742	1
2742	2743	1
2742	2744	1
2733	2740	1
2740	2741	1
2740	4998	1
2731	2732	1
2730	2731	1
2732	2733	1
2733	2734	1
2732	2736	1
2730	2735	1
2730	2738	1
2734	2735	1
2734	2737	1
2735	2739	1
116	127	1
127	128	1
127	11166	1
118	125	1
125	126	1
106	125	1
116	117	1
115	116	1
117	118	1
118	119	1
117	121	1
115	120	1
115	123	1
119	120	1
119	122	1
120	124	1
3957	3968	1
3968	3969	1
3968	7985	1
3959	3966	1
3966	3967	1
3966	3976	1
3957	3958	1
3956	3957	1
3958	3959	1
3959	3960	1
3958	3962	1
3956	3961	1
3956	3964	1
3960	3961	1
3960	3963	1
3961	3965	1
12394	12405	1
12405	12406	1
2185	12405	1
12396	12403	1
12403	12404	1
12403	5947	1
12394	12395	1
12393	12394	1
12395	12396	1
12396	12397	1
12395	12399	1
12393	12398	1
12393	12401	1
12397	12398	1
12397	12400	1
12398	12402	1
11918	11929	1
11929	11930	1
11929	5130	1
11920	11927	1
11927	11928	1
1384	11927	1
11918	11919	1
11917	11918	1
11919	11920	1
11920	11921	1
11919	11923	1
11917	11922	1
11917	11925	1
11921	11922	1
11921	11924	1
11922	11926	1
10882	10893	1
10893	10894	1
10893	10901	1
10884	10891	1
10891	10892	1
10891	9054	1
10882	10883	1
10881	10882	1
10883	10884	1
10884	10885	1
10883	10887	1
10881	10886	1
10881	10889	1
10885	10886	1
10885	10888	1
10886	10890	1
3928	3939	1
3939	3940	1
3939	6878	1
3930	3937	1
3937	3938	1
3937	3947	1
3928	3929	1
3927	3928	1
3929	3930	1
3930	3931	1
3929	3933	1
3927	3932	1
3927	3935	1
3931	3932	1
3931	3934	1
3932	3936	1
13122	13133	1
13133	13134	1
13133	7883	1
13124	13131	1
13131	13132	1
1213	13131	1
13122	13123	1
13121	13122	1
13123	13124	1
13124	13125	1
13123	13127	1
13121	13126	1
13121	13129	1
13125	13126	1
13125	13128	1
13126	13130	1
13150	13161	1
13161	13162	1
13161	7941	1
13152	13159	1
13159	13160	1
13159	9228	1
13150	13151	1
13149	13150	1
13151	13152	1
13152	13153	1
13151	13155	1
13149	13154	1
13149	13157	1
13153	13154	1
13153	13156	1
13154	13158	1
3361	3372	1
3372	3373	1
3372	3374	1
3363	3370	1
3370	3371	1
3370	9084	1
3361	3362	1
3360	3361	1
3362	3363	1
3363	3364	1
3362	3366	1
3360	3365	1
3360	3368	1
3364	3365	1
3364	3367	1
3365	3369	1
4770	4781	1
4781	4782	1
4781	9564	1
4772	4779	1
4779	4780	1
4779	4789	1
4770	4771	1
4769	4770	1
4771	4772	1
4772	4773	1
4771	4775	1
4769	4774	1
4769	4777	1
4773	4774	1
4773	4776	1
4774	4778	1
11652	11663	1
11663	11664	1
11663	4679	1
11654	11661	1
11661	11662	1
11661	6281	1
11652	11653	1
11651	11652	1
11653	11654	1
11654	11655	1
11653	11657	1
11651	11656	1
11651	11659	1
11655	11656	1
11655	11658	1
11656	11660	1
2271	2282	1
2282	2283	1
2282	9646	1
2273	2280	1
2280	2281	1
2264	2280	1
2271	2272	1
2270	2271	1
2272	2273	1
2273	2274	1
2272	2276	1
2270	2275	1
2270	2278	1
2274	2275	1
2274	2277	1
2275	2279	1
1976	1987	1
1987	1988	1
1964	1987	1
1978	1985	1
1985	1986	1
1985	4999	1
1976	1977	1
1975	1976	1
1977	1978	1
1978	1979	1
1977	1981	1
1975	1980	1
1975	1983	1
1979	1980	1
1979	1982	1
1980	1984	1
11666	11677	1
11677	11678	1
11677	8747	1
11668	11675	1
11675	11676	1
11675	4707	1
11666	11667	1
11665	11666	1
11667	11668	1
11668	11669	1
11667	11671	1
11665	11670	1
11665	11673	1
11669	11670	1
11669	11672	1
11670	11674	1
13206	13217	1
13217	13218	1
13217	8160	1
13208	13215	1
13215	13216	1
13215	9563	1
13206	13207	1
13205	13206	1
13207	13208	1
13208	13209	1
13207	13211	1
13205	13210	1
13205	13213	1
13209	13210	1
13209	13212	1
13210	13214	1
5221	5232	1
5232	5233	1
5232	10118	1
5223	5230	1
5230	5231	1
5230	5240	1
5221	5222	1
5220	5221	1
5222	5223	1
5223	5224	1
5222	5226	1
5220	5225	1
5220	5228	1
5224	5225	1
5224	5227	1
5225	5229	1
12730	12741	1
12741	12742	1
12741	8498	1
12732	12739	1
12739	12740	1
12739	6646	1
12730	12731	1
12729	12730	1
12731	12732	1
12732	12733	1
12731	12735	1
12729	12734	1
12729	12737	1
12733	12734	1
12733	12736	1
12734	12738	1
11526	11537	1
11537	11538	1
11537	7098	1
11528	11535	1
11535	11536	1
11535	4417	1
11526	11527	1
11525	11526	1
11527	11528	1
11528	11529	1
11527	11531	1
11525	11530	1
11525	11533	1
11529	11530	1
11529	11532	1
11530	11534	1
1558	1569	1
1569	1570	1
1579	1569	1
1560	1567	1
1567	1568	1
1567	8220	1
1558	1559	1
1557	1558	1
1559	1560	1
1560	1561	1
1559	1563	1
1557	1562	1
1557	1565	1
1561	1562	1
1561	1564	1
1562	1566	1
6403	6414	1
6414	6415	1
6414	6422	1
6405	6412	1
6412	6413	1
6412	9621	1
6403	6404	1
6402	6403	1
6404	6405	1
6405	6406	1
6404	6408	1
6402	6407	1
6402	6410	1
6406	6407	1
6406	6409	1
6407	6411	1
12814	12825	1
12825	12826	1
12825	9432	1
12816	12823	1
12823	12824	1
12823	6981	1
12814	12815	1
12813	12814	1
12815	12816	1
12816	12817	1
12815	12819	1
12813	12818	1
12813	12821	1
12817	12818	1
12817	12820	1
12818	12822	1
13178	13189	1
13189	13190	1
13189	8307	1
13180	13187	1
13187	13188	1
13187	8030	1
13178	13179	1
13177	13178	1
13179	13180	1
13180	13181	1
13179	13183	1
13177	13182	1
13177	13185	1
13181	13182	1
13181	13184	1
13182	13186	1
13376	13383	1
13383	13384	1
13383	8410	1
13374	13385	1
13385	13386	1
13385	9009	1
13376	13375	1
13377	13376	1
13375	13374	1
13374	13373	1
13375	13379	1
13377	13378	1
13377	13380	1
13373	13378	1
13373	13381	1
13378	13382	1
12716	12727	1
12727	12728	1
12727	7316	1
12718	12725	1
12725	12726	1
12725	6645	1
12716	12717	1
12715	12716	1
12717	12718	1
12718	12719	1
12717	12721	1
12715	12720	1
12715	12723	1
12719	12720	1
12719	12722	1
12720	12724	1
1237	1244	1
1244	1245	1
1244	10454	1
1235	1246	1
1246	1247	1
1248	1246	1
1237	1236	1
1238	1237	1
1236	1235	1
1235	1234	1
1236	1240	1
1238	1239	1
1238	1241	1
1234	1239	1
1234	1242	1
1239	1243	1
7262	7273	1
7273	7274	1
7273	7281	1
7264	7271	1
7271	7272	1
7271	9661	1
7262	7263	1
7261	7262	1
7263	7264	1
7264	7265	1
7263	7267	1
7261	7266	1
7261	7269	1
7265	7266	1
7265	7268	1
7266	7270	1
1605	1616	1
1616	1617	1
1593	1616	1
1607	1614	1
1614	1615	1
1182	1614	1
1605	1606	1
1604	1605	1
1606	1607	1
1607	1608	1
1606	1610	1
1604	1609	1
1604	1612	1
1608	1609	1
1608	1611	1
1609	1613	1
507	518	1
518	519	1
518	5911	1
509	516	1
516	517	1
520	516	1
507	508	1
506	507	1
508	509	1
509	510	1
508	512	1
506	511	1
506	514	1
510	511	1
510	513	1
511	515	1
13052	13063	1
13063	13064	1
13063	8907	1
13054	13061	1
13061	13062	1
13061	7636	1
13052	13053	1
13051	13052	1
13053	13054	1
13054	13055	1
13053	13057	1
13051	13056	1
13051	13059	1
13055	13056	1
13055	13058	1
13056	13060	1
8386	8397	1
8397	8398	1
8397	8405	1
8388	8395	1
8395	8396	1
8395	10176	1
8386	8387	1
8385	8386	1
8387	8388	1
8388	8389	1
8387	8391	1
8385	8390	1
8385	8393	1
8389	8390	1
8389	8392	1
8390	8394	1
4743	4750	1
4750	4751	1
4750	7126	1
4741	4752	1
4752	4753	1
4752	4760	1
4742	4743	1
4743	4744	1
4741	4742	1
4740	4741	1
4742	4746	1
4744	4745	1
4744	4747	1
4740	4745	1
4740	4748	1
4745	4749	1
3723	3730	1
3730	3731	1
3730	11156	1
3721	3732	1
3732	3733	1
3732	3734	1
3722	3723	1
3723	3724	1
3721	3722	1
3720	3721	1
3722	3726	1
3724	3725	1
3724	3727	1
3720	3725	1
3720	3728	1
3725	3729	1
12296	12307	1
12307	12308	1
12307	10141	1
12298	12305	1
12305	12306	1
12305	5800	1
12296	12297	1
12295	12296	1
12297	12298	1
12298	12299	1
12297	12301	1
12295	12300	1
12295	12303	1
12299	12300	1
12299	12302	1
12300	12304	1
5250	5261	1
5261	5262	1
5261	5269	1
5252	5259	1
5259	5260	1
5259	8258	1
5250	5251	1
5249	5250	1
5251	5252	1
5252	5253	1
5251	5255	1
5249	5254	1
5249	5257	1
5253	5254	1
5253	5256	1
5254	5258	1
7714	7725	1
7725	7726	1
7725	7733	1
7716	7723	1
7723	7724	1
7723	4446	1
7714	7715	1
7713	7714	1
7715	7716	1
7716	7717	1
7715	7719	1
7713	7718	1
7713	7721	1
7717	7718	1
7717	7720	1
7718	7722	1
9322	9329	1
9329	9330	1
455	9329	1
9320	9331	1
9331	9332	1
9331	9339	1
9321	9322	1
9322	9323	1
9320	9321	1
9319	9320	1
9321	9325	1
9323	9324	1
9323	9326	1
9319	9324	1
9319	9327	1
9324	9328	1
2099	2110	1
2110	2111	1
2087	2110	1
2101	2108	1
2108	2109	1
2108	9063	1
2099	2100	1
2098	2099	1
2100	2101	1
2101	2102	1
2100	2104	1
2098	2103	1
2098	2106	1
2102	2103	1
2102	2105	1
2103	2107	1
10838	10849	1
10849	10850	1
10849	10857	1
10840	10847	1
10847	10848	1
10847	7681	1
10838	10839	1
10837	10838	1
10839	10840	1
10840	10841	1
10839	10843	1
10837	10842	1
10837	10845	1
10841	10842	1
10841	10844	1
10842	10846	1
13136	13147	1
13147	13148	1
2480	13147	1
13138	13145	1
13145	13146	1
13145	7912	1
13136	13137	1
13135	13136	1
13137	13138	1
13138	13139	1
13137	13141	1
13135	13140	1
13135	13143	1
13139	13140	1
13139	13142	1
13140	13144	1
13628	13635	1
13635	13636	1
13635	9900	1
13626	13637	1
13637	13638	1
980	13637	1
13627	13628	1
13628	13629	1
13626	13627	1
13625	13626	1
13627	13631	1
13629	13630	1
13629	13632	1
13625	13630	1
13625	13633	1
13630	13634	1
11624	11635	1
11635	11636	1
11635	4649	1
11626	11633	1
11633	11634	1
11633	11010	1
11624	11625	1
11623	11624	1
11625	11626	1
11626	11627	1
11625	11629	1
11623	11628	1
11623	11631	1
11627	11628	1
11627	11630	1
11628	11632	1
2365	2372	1
2372	2373	1
2372	5027	1
2363	2374	1
2374	2375	1
2351	2374	1
2365	2364	1
2366	2365	1
2364	2363	1
2363	2362	1
2364	2368	1
2366	2367	1
2366	2369	1
2362	2367	1
2362	2370	1
2367	2371	1
3826	3837	1
3837	3838	1
3837	3845	1
3828	3835	1
3835	3836	1
3835	10755	1
3826	3827	1
3825	3826	1
3827	3828	1
3828	3829	1
3827	3831	1
3825	3830	1
3825	3833	1
3829	3830	1
3829	3832	1
3830	3834	1
13458	13469	1
13469	13470	1
13469	8834	1
13460	13467	1
13467	13468	1
1275	13467	1
13458	13459	1
13457	13458	1
13459	13460	1
13460	13461	1
13459	13463	1
13457	13462	1
13457	13465	1
13461	13462	1
13461	13464	1
13462	13466	1
11820	11831	1
11831	11832	1
11831	4926	1
11822	11829	1
11829	11830	1
11829	11054	1
11820	11821	1
11819	11820	1
11821	11822	1
11822	11823	1
11821	11825	1
11819	11824	1
11819	11827	1
11823	11824	1
11823	11826	1
11824	11828	1
11764	11775	1
11775	11776	1
11775	4853	1
11766	11773	1
11773	11774	1
11773	10277	1
11764	11765	1
11763	11764	1
11765	11766	1
11766	11767	1
11765	11769	1
11763	11768	1
11763	11771	1
11767	11768	1
11767	11770	1
11768	11772	1
956	967	1
967	968	1
944	967	1
958	965	1
965	966	1
965	5941	1
956	957	1
955	956	1
957	958	1
958	959	1
957	961	1
955	960	1
955	963	1
959	960	1
959	962	1
960	964	1
6723	6734	1
6734	6735	1
6734	6742	1
6725	6732	1
6732	6733	1
1134	6732	1
6723	6724	1
6722	6723	1
6724	6725	1
6725	6726	1
6724	6728	1
6722	6727	1
6722	6730	1
6726	6727	1
6726	6729	1
6727	6731	1
6650	6661	1
6661	6662	1
6661	5188	1
6652	6659	1
6659	6660	1
6659	6669	1
6650	6651	1
6649	6650	1
6651	6652	1
6652	6653	1
6651	6655	1
6649	6654	1
6649	6657	1
6653	6654	1
6653	6656	1
6654	6658	1
12422	12433	1
12433	12434	1
1518	12433	1
12424	12431	1
12431	12432	1
12431	6004	1
12422	12423	1
12421	12422	1
12423	12424	1
12424	12425	1
12423	12427	1
12421	12426	1
12421	12429	1
12425	12426	1
12425	12428	1
12426	12430	1
3271	3282	1
3282	3284	1
3282	3283	1
3273	3280	1
3280	3281	1
3280	8902	1
3271	3272	1
3270	3271	1
3272	3273	1
3273	3274	1
3272	3276	1
3270	3275	1
3270	3278	1
3274	3275	1
3274	3277	1
3275	3279	1
740	751	1
751	752	1
728	751	1
742	749	1
749	750	1
749	4993	1
740	741	1
739	740	1
741	742	1
742	743	1
741	745	1
739	744	1
739	747	1
743	744	1
743	746	1
744	748	1
8839	8850	1
8850	8851	1
8850	9943	1
8841	8848	1
8848	8849	1
8848	8864	1
8839	8840	1
8838	8839	1
8840	8841	1
8841	8842	1
8840	8844	1
8838	8843	1
8838	8846	1
8842	8843	1
8842	8845	1
8843	8847	1
12562	12573	1
12573	12574	1
12573	8088	1
12564	12571	1
12571	12572	1
12571	6267	1
12562	12563	1
12561	12562	1
12563	12564	1
12564	12565	1
12563	12567	1
12561	12566	1
12561	12569	1
12565	12566	1
12565	12568	1
12566	12570	1
7510	7521	1
7521	7522	1
7521	9724	1
7512	7519	1
7519	7520	1
7519	7529	1
7510	7511	1
7509	7510	1
7511	7512	1
7512	7513	1
7511	7515	1
7509	7514	1
7509	7517	1
7513	7514	1
7513	7516	1
7514	7518	1
7917	7928	1
7928	7929	1
7928	7936	1
7919	7926	1
7926	7927	1
7926	7680	1
7917	7918	1
7916	7917	1
7918	7919	1
7919	7920	1
7918	7922	1
7916	7921	1
7916	7924	1
7920	7921	1
7920	7923	1
7921	7925	1
12772	12783	1
12783	12784	1
12783	10379	1
12774	12781	1
12781	12782	1
12781	6748	1
12772	12773	1
12771	12772	1
12773	12774	1
12774	12775	1
12773	12777	1
12771	12776	1
12771	12779	1
12775	12776	1
12775	12778	1
12776	12780	1
148	159	1
159	160	1
138	159	1
150	157	1
157	158	1
157	6791	1
148	149	1
147	148	1
149	150	1
150	151	1
149	153	1
147	152	1
147	155	1
151	152	1
151	154	1
152	156	1
11554	11565	1
11565	11566	1
11565	4475	1
11556	11563	1
11563	11564	1
393	11563	1
11554	11555	1
11553	11554	1
11555	11556	1
11556	11557	1
11555	11559	1
11553	11558	1
11553	11561	1
11557	11558	1
11557	11560	1
11558	11562	1
1697	1708	1
1708	1709	1
1708	7884	1
1699	1706	1
1706	1707	1
1685	1706	1
1697	1698	1
1696	1697	1
1698	1699	1
1699	1700	1
1698	1702	1
1696	1701	1
1696	1704	1
1700	1701	1
1700	1703	1
1701	1705	1
2332	2343	1
2343	2344	1
2343	6786	1
2334	2341	1
2341	2342	1
2320	2341	1
2332	2333	1
2331	2332	1
2333	2334	1
2334	2335	1
2333	2337	1
2331	2336	1
2331	2339	1
2335	2336	1
2335	2338	1
2336	2340	1
12842	12853	1
12853	12854	1
12853	8776	1
12844	12851	1
12851	12852	1
12851	7040	1
12842	12843	1
12841	12842	1
12843	12844	1
12844	12845	1
12843	12847	1
12841	12846	1
12841	12849	1
12845	12846	1
12845	12848	1
12846	12850	1
3631	3642	1
3642	3643	1
3642	3644	1
3633	3640	1
3640	3641	1
3640	10805	1
3631	3632	1
3630	3631	1
3632	3633	1
3633	3634	1
3632	3636	1
3630	3635	1
3630	3638	1
3634	3635	1
3634	3637	1
3635	3639	1
5675	5682	1
5682	5683	1
1571	5682	1
5673	5684	1
5684	5685	1
5684	5698	1
5675	5674	1
5676	5675	1
5674	5673	1
5673	5672	1
5674	5678	1
5676	5677	1
5676	5679	1
5672	5677	1
5672	5680	1
5677	5681	1
13024	13035	1
13035	13036	1
13035	7602	1
13026	13033	1
13033	13034	1
13033	9622	1
13024	13025	1
13023	13024	1
13025	13026	1
13026	13027	1
13025	13029	1
13023	13028	1
13023	13031	1
13027	13028	1
13027	13030	1
13028	13032	1
5134	5145	1
5145	5146	1
5145	5153	1
5136	5143	1
5143	5144	1
5143	3923	1
5134	5135	1
5133	5134	1
5135	5136	1
5136	5137	1
5135	5139	1
5133	5138	1
5133	5141	1
5137	5138	1
5137	5140	1
5138	5142	1
3986	3997	1
3997	3998	1
3997	10761	1
3988	3995	1
3995	3996	1
3995	4005	1
3986	3987	1
3985	3986	1
3987	3988	1
3988	3989	1
3987	3991	1
3985	3990	1
3985	3993	1
3989	3990	1
3989	3992	1
3990	3994	1
12212	12223	1
12223	12224	1
12223	5697	1
12214	12221	1
12221	12222	1
826	12221	1
12212	12213	1
12211	12212	1
12213	12214	1
12214	12215	1
12213	12217	1
12211	12216	1
12211	12219	1
12215	12216	1
12215	12218	1
12216	12220	1
10093	10104	1
10104	10105	1
10104	10112	1
10095	10102	1
10102	10103	1
10102	7214	1
10093	10094	1
10092	10093	1
10094	10095	1
10095	10096	1
10094	10098	1
10092	10097	1
10092	10100	1
10096	10097	1
10096	10099	1
10097	10101	1
12646	12657	1
12657	12658	1
12657	6428	1
12648	12655	1
12655	12656	1
949	12655	1
12646	12647	1
12645	12646	1
12647	12648	1
12648	12649	1
12647	12651	1
12645	12650	1
12645	12653	1
12649	12650	1
12649	12652	1
12650	12654	1
9262	9273	1
9273	9274	1
9273	10175	1
9264	9271	1
9271	9272	1
9271	9286	1
9262	9263	1
9261	9262	1
9263	9264	1
9264	9265	1
9263	9267	1
9261	9266	1
9261	9269	1
9265	9266	1
9265	9268	1
9266	9270	1
8063	8074	1
8074	8075	1
8074	5348	1
8065	8072	1
8072	8073	1
8072	8082	1
8063	8064	1
8062	8063	1
8064	8065	1
8065	8066	1
8064	8068	1
8062	8067	1
8062	8070	1
8066	8067	1
8066	8069	1
8067	8071	1
10151	10162	1
10162	10163	1
10162	10170	1
10153	10160	1
10160	10161	1
10160	4852	1
10151	10152	1
10150	10151	1
10152	10153	1
10153	10154	1
10152	10156	1
10150	10155	1
10150	10158	1
10154	10155	1
10154	10157	1
10155	10159	1
9948	9959	1
9959	9960	1
1856	9959	1
9950	9957	1
9957	9958	1
9957	9967	1
9948	9949	1
9947	9948	1
9949	9950	1
9950	9951	1
9949	9953	1
9947	9952	1
9947	9955	1
9951	9952	1
9951	9954	1
9952	9956	1
11414	11425	1
11425	11426	1
11425	4243	1
11416	11423	1
11423	11424	1
11423	7652	1
11414	11415	1
11413	11414	1
11415	11416	1
11416	11417	1
11415	11419	1
11413	11418	1
11413	11421	1
11417	11418	1
11417	11420	1
11418	11422	1
13752	13763	1
13763	13764	1
1752	13763	1
13754	13761	1
13761	13762	1
13761	11112	1
13752	13753	1
13751	13752	1
13753	13754	1
13754	13755	1
13753	13757	1
13751	13756	1
13751	13759	1
13755	13756	1
13755	13758	1
13756	13760	1
2898	2905	1
2905	2906	1
2905	5844	1
2896	2907	1
2907	2908	1
2907	2909	1
2897	2898	1
2898	2899	1
2896	2897	1
2895	2896	1
2897	2901	1
2899	2900	1
2899	2902	1
2895	2900	1
2895	2903	1
2900	2904	1
244	255	1
255	256	1
234	255	1
246	253	1
253	254	1
253	8771	1
244	245	1
243	244	1
245	246	1
246	247	1
245	249	1
243	248	1
243	251	1
247	248	1
247	250	1
248	252	1
13066	13077	1
13077	13078	1
13077	10730	1
13068	13075	1
13075	13076	1
13075	7651	1
13066	13067	1
13065	13066	1
13067	13068	1
13068	13069	1
13067	13071	1
13065	13070	1
13065	13073	1
13069	13070	1
13069	13072	1
13070	13074	1
12884	12895	1
12895	12896	1
12895	7179	1
12886	12893	1
12893	12894	1
12893	8805	1
12884	12885	1
12883	12884	1
12885	12886	1
12886	12887	1
12885	12889	1
12883	12888	1
12883	12891	1
12887	12888	1
12887	12890	1
12888	12892	1
13332	13343	1
13343	13344	1
702	13343	1
13334	13341	1
13341	13342	1
13341	8308	1
13332	13333	1
13331	13332	1
13333	13334	1
13334	13335	1
13333	13337	1
13331	13336	1
13331	13339	1
13335	13336	1
13335	13338	1
13336	13340	1
2425	2436	1
2436	2437	1
2413	2436	1
2427	2434	1
2434	2435	1
2434	8199	1
2425	2426	1
2424	2425	1
2426	2427	1
2427	2428	1
2426	2430	1
2424	2429	1
2424	2432	1
2428	2429	1
2428	2431	1
2429	2433	1
11862	11873	1
11873	11874	1
1256	11873	1
11864	11871	1
11871	11872	1
11871	5028	1
11862	11863	1
11861	11862	1
11863	11864	1
11864	11865	1
11863	11867	1
11861	11866	1
11861	11869	1
11865	11866	1
11865	11868	1
11866	11870	1
2941	2952	1
2952	2953	1
2952	2954	1
2943	2950	1
2950	2951	1
2950	6553	1
2941	2942	1
2940	2941	1
2942	2943	1
2943	2944	1
2942	2946	1
2940	2945	1
2940	2948	1
2944	2945	1
2944	2947	1
2945	2949	1
13822	13833	1
13833	13834	1
2202	13833	1
13824	13831	1
13831	13832	1
1906	13831	1
13822	13823	1
13821	13822	1
13823	13824	1
13824	13825	1
13823	13827	1
13821	13826	1
13821	13829	1
13825	13826	1
13825	13828	1
13826	13830	1
8329	8336	1
8336	8337	1
8336	8346	1
8327	8338	1
8338	8339	1
8338	9690	1
8329	8328	1
8330	8329	1
8328	8327	1
8327	8326	1
8328	8332	1
8330	8331	1
8330	8333	1
8326	8331	1
8326	8334	1
8331	8335	1
1391	1402	1
1402	1403	1
609	1402	1
1393	1400	1
1400	1401	1
1379	1400	1
1391	1392	1
1390	1391	1
1392	1393	1
1393	1394	1
1392	1396	1
1390	1395	1
1390	1398	1
1394	1395	1
1394	1397	1
1395	1399	1
7437	7448	1
7448	7449	1
7448	7456	1
7439	7446	1
7446	7447	1
7446	6238	1
7437	7438	1
7436	7437	1
7438	7439	1
7439	7440	1
7438	7442	1
7436	7441	1
7436	7444	1
7440	7441	1
7440	7443	1
7441	7445	1
11612	11619	1
11619	11620	1
11619	7563	1
11610	11621	1
11621	11622	1
11621	4620	1
11611	11612	1
11612	11613	1
11610	11611	1
11609	11610	1
11611	11615	1
11613	11614	1
11613	11616	1
11609	11614	1
11609	11617	1
11614	11618	1
12242	12249	1
12249	12250	1
12249	6616	1
12240	12251	1
12251	12252	1
12251	5727	1
12241	12242	1
12242	12243	1
12240	12241	1
12239	12240	1
12241	12245	1
12243	12244	1
12243	12246	1
12239	12244	1
12239	12247	1
12244	12248	1
6242	6253	1
6253	6254	1
6253	6261	1
6244	6251	1
6251	6252	1
6251	4184	1
6242	6243	1
6241	6242	1
6243	6244	1
6244	6245	1
6243	6247	1
6241	6246	1
6241	6249	1
6245	6246	1
6245	6248	1
6246	6250	1
4131	4142	1
4142	4143	1
4142	4150	1
4133	4140	1
4140	4141	1
4140	7767	1
4131	4132	1
4130	4131	1
4132	4133	1
4133	4134	1
4132	4136	1
4130	4135	1
4130	4138	1
4134	4135	1
4134	4137	1
4135	4139	1
11708	11719	1
11719	11720	1
11719	8352	1
11710	11717	1
11717	11718	1
11717	4766	1
11708	11709	1
11707	11708	1
11709	11710	1
11710	11711	1
11709	11713	1
11707	11712	1
11707	11715	1
11711	11712	1
11711	11714	1
11712	11716	1
7990	8001	1
8001	8002	1
8001	8009	1
7992	7999	1
7999	8000	1
7999	3894	1
7990	7991	1
7989	7990	1
7991	7992	1
7992	7993	1
7991	7995	1
7989	7994	1
7989	7997	1
7993	7994	1
7993	7996	1
7994	7998	1
4712	4723	1
4723	4724	1
4723	6340	1
4714	4721	1
4721	4722	1
4721	4731	1
4712	4713	1
4711	4712	1
4713	4714	1
4714	4715	1
4713	4717	1
4711	4716	1
4711	4719	1
4715	4716	1
4715	4718	1
4716	4720	1
4654	4665	1
4665	4666	1
857	4665	1
4656	4663	1
4663	4664	1
4663	4678	1
4654	4655	1
4653	4654	1
4655	4656	1
4656	4657	1
4655	4659	1
4653	4658	1
4653	4661	1
4657	4658	1
4657	4660	1
4658	4662	1
10064	10075	1
10075	10076	1
10075	10089	1
10066	10073	1
10073	10074	1
10073	8777	1
10064	10065	1
10063	10064	1
10065	10066	1
10066	10067	1
10065	10069	1
10063	10068	1
10063	10071	1
10067	10068	1
10067	10070	1
10068	10072	1
5819	5830	1
5830	5831	1
5830	5838	1
5821	5828	1
5828	5829	1
5828	8756	1
5819	5820	1
5818	5819	1
5820	5821	1
5821	5822	1
5820	5824	1
5818	5823	1
5818	5826	1
5822	5823	1
5822	5825	1
5823	5827	1
2986	2997	1
2997	2998	1
2997	2999	1
2988	2995	1
2995	2996	1
2995	6713	1
2986	2987	1
2985	2986	1
2987	2988	1
2988	2989	1
2987	2991	1
2985	2990	1
2985	2993	1
2989	2990	1
2989	2992	1
2990	2994	1
6956	6967	1
6967	6968	1
6967	11151	1
6958	6965	1
6965	6966	1
6965	6980	1
6956	6957	1
6955	6956	1
6957	6958	1
6958	6959	1
6957	6961	1
6955	6960	1
6955	6963	1
6959	6960	1
6959	6962	1
6960	6964	1
1282	1293	1
1293	1294	1
1293	7490	1
1284	1291	1
1291	1292	1
1270	1291	1
1282	1283	1
1281	1282	1
1283	1284	1
1284	1285	1
1283	1287	1
1281	1286	1
1281	1289	1
1285	1286	1
1285	1288	1
1286	1290	1
2566	2577	1
2577	2578	1
795	2577	1
2568	2575	1
2575	2576	1
2554	2575	1
2566	2567	1
2565	2566	1
2567	2568	1
2568	2569	1
2567	2571	1
2565	2570	1
2565	2573	1
2569	2570	1
2569	2572	1
2570	2574	1
6376	6383	1
6383	6384	1
6383	7738	1
6374	6385	1
6385	6386	1
6385	6393	1
6376	6375	1
6377	6376	1
6375	6374	1
6374	6373	1
6375	6379	1
6377	6378	1
6377	6380	1
6373	6378	1
6373	6381	1
6378	6382	1
11218	11229	1
11229	11230	1
11229	7461	1
11220	11227	1
11227	11228	1
11227	3865	1
11218	11219	1
11217	11218	1
11219	11220	1
11220	11221	1
11219	11223	1
11217	11222	1
11217	11225	1
11221	11222	1
11221	11224	1
11222	11226	1
10340	10351	1
10351	10352	1
10351	4316	1
10342	10349	1
10349	10350	1
10349	10359	1
10340	10341	1
10339	10340	1
10341	10342	1
10342	10343	1
10341	10345	1
10339	10344	1
10339	10347	1
10343	10344	1
10343	10346	1
10344	10348	1
3813	3820	1
3820	3821	1
764	3820	1
3811	3822	1
3822	3824	1
3822	3823	1
3812	3813	1
3813	3814	1
3811	3812	1
3810	3811	1
3812	3816	1
3814	3815	1
3814	3817	1
3810	3815	1
3810	3818	1
3815	3819	1
11260	11271	1
11271	11272	1
11271	6792	1
11262	11269	1
11269	11270	1
11269	4011	1
11260	11261	1
11259	11260	1
11261	11262	1
11262	11263	1
11261	11265	1
11259	11264	1
11259	11267	1
11263	11264	1
11263	11266	1
11264	11268	1
10561	10572	1
10572	10573	1
10572	11048	1
10563	10570	1
10570	10571	1
10570	10580	1
10561	10562	1
10560	10561	1
10562	10563	1
10563	10564	1
10562	10566	1
10560	10565	1
10560	10568	1
10564	10565	1
10564	10567	1
10565	10569	1
7102	7113	1
7113	7114	1
7113	7121	1
7104	7111	1
7111	7112	1
7111	5916	1
7102	7103	1
7101	7102	1
7103	7104	1
7104	7105	1
7103	7107	1
7101	7106	1
7101	7109	1
7105	7106	1
7105	7108	1
7106	7110	1
1821	1832	1
1832	1833	1
1814	1832	1
1823	1830	1
1830	1831	1
300	1830	1
1821	1822	1
1820	1821	1
1822	1823	1
1823	1824	1
1822	1826	1
1820	1825	1
1820	1828	1
1824	1825	1
1824	1827	1
1825	1829	1
12828	12839	1
12839	12840	1
12839	6995	1
12830	12837	1
12837	12838	1
12837	10701	1
12828	12829	1
12827	12828	1
12829	12830	1
12830	12831	1
12829	12833	1
12827	12832	1
12827	12835	1
12831	12832	1
12831	12834	1
12832	12836	1
3376	3387	1
3387	3388	1
3387	3389	1
3378	3385	1
3385	3386	1
3385	9112	1
3376	3377	1
3375	3376	1
3377	3378	1
3378	3379	1
3377	3381	1
3375	3380	1
3375	3383	1
3379	3380	1
3379	3382	1
3380	3384	1
13528	13539	1
13539	13540	1
13539	9024	1
13530	13537	1
13537	13538	1
13537	10834	1
13528	13529	1
13527	13528	1
13529	13530	1
13530	13531	1
13529	13533	1
13527	13532	1
13527	13535	1
13531	13532	1
13531	13534	1
13532	13536	1
11932	11943	1
11943	11944	1
2031	11943	1
11934	11941	1
11941	11942	1
11941	5159	1
11932	11933	1
11931	11932	1
11933	11934	1
11934	11935	1
11933	11937	1
11931	11936	1
11931	11939	1
11935	11936	1
11935	11938	1
11936	11940	1
11246	11257	1
11257	11258	1
11257	3924	1
11248	11255	1
11255	11256	1
2092	11255	1
11246	11247	1
11245	11246	1
11247	11248	1
11248	11249	1
11247	11251	1
11245	11250	1
11245	11253	1
11249	11250	1
11249	11252	1
11250	11254	1
3601	3612	1
3612	3614	1
3612	3613	1
3603	3610	1
3610	3611	1
3610	10740	1
3601	3602	1
3600	3601	1
3602	3603	1
3603	3604	1
3602	3606	1
3600	3605	1
3600	3608	1
3604	3605	1
3604	3607	1
3605	3609	1
309	316	1
316	317	1
316	7710	1
307	318	1
318	319	1
295	318	1
309	308	1
310	309	1
308	307	1
307	306	1
308	312	1
310	311	1
310	313	1
306	311	1
306	314	1
311	315	1
2597	2608	1
2608	2609	1
2585	2608	1
2599	2606	1
2606	2607	1
424	2606	1
2597	2598	1
2596	2597	1
2598	2599	1
2599	2600	1
2598	2602	1
2596	2601	1
2596	2604	1
2600	2601	1
2600	2603	1
2601	2605	1
5541	5552	1
5552	5553	1
5552	5560	1
5543	5550	1
5550	5551	1
5550	10872	1
5541	5542	1
5540	5541	1
5542	5543	1
5543	5544	1
5542	5546	1
5540	5545	1
5540	5548	1
5544	5545	1
5544	5547	1
5545	5549	1
4320	4331	1
4331	4332	1
4331	4339	1
4322	4329	1
4329	4330	1
4329	8639	1
4320	4321	1
4319	4320	1
4321	4322	1
4322	4323	1
4321	4325	1
4319	4324	1
4319	4327	1
4323	4324	1
4323	4326	1
4324	4328	1
13836	13847	1
13847	13848	1
1303	13847	1
13838	13845	1
13845	13846	1
1659	13845	1
13836	13837	1
13835	13836	1
13837	13838	1
13838	13839	1
13837	13841	1
13835	13840	1
13835	13843	1
13839	13840	1
13839	13842	1
13840	13844	1
3286	3297	1
3297	3298	1
3297	3299	1
3288	3295	1
3295	3296	1
3295	8908	1
3286	3287	1
3285	3286	1
3287	3288	1
3288	3289	1
3287	3291	1
3285	3290	1
3285	3293	1
3289	3290	1
3289	3292	1
3290	3294	1
12534	12545	1
12545	12546	1
12545	6223	1
12536	12543	1
12543	12544	1
12543	6617	1
12534	12535	1
12533	12534	1
12535	12536	1
12536	12537	1
12535	12539	1
12533	12538	1
12533	12541	1
12537	12538	1
12537	12540	1
12538	12542	1
12310	12321	1
12321	12322	1
12321	7025	1
12312	12319	1
12319	12320	1
12319	5815	1
12310	12311	1
12309	12310	1
12311	12312	1
12312	12313	1
12311	12315	1
12309	12314	1
12309	12317	1
12313	12314	1
12313	12316	1
12314	12318	1
11386	11397	1
11397	11398	1
11397	4213	1
11388	11395	1
11395	11396	1
11395	10410	1
11386	11387	1
11385	11386	1
11387	11388	1
11388	11389	1
11387	11391	1
11385	11390	1
11385	11393	1
11389	11390	1
11389	11392	1
11390	11394	1
5279	5290	1
5290	5291	1
5290	5298	1
5281	5288	1
5288	5289	1
5288	7127	1
5279	5280	1
5278	5279	1
5280	5281	1
5281	5282	1
5280	5284	1
5278	5283	1
5278	5286	1
5282	5283	1
5282	5285	1
5283	5287	1
1422	1433	1
1433	1434	1
1410	1433	1
1424	1431	1
1431	1432	1
1431	8741	1
1422	1423	1
1421	1422	1
1423	1424	1
1424	1425	1
1423	1427	1
1421	1426	1
1421	1429	1
1425	1426	1
1425	1428	1
1426	1430	1
12632	12643	1
12643	12644	1
12643	6821	1
12634	12641	1
12641	12642	1
12641	6399	1
12632	12633	1
12631	12632	1
12633	12634	1
12634	12635	1
12633	12637	1
12631	12636	1
12631	12639	1
12635	12636	1
12635	12638	1
12636	12640	1
11876	11887	1
11887	11888	1
11887	8703	1
11878	11885	1
11885	11886	1
11885	5072	1
11876	11877	1
11875	11876	1
11877	11878	1
11878	11879	1
11877	11881	1
11875	11880	1
11875	11883	1
11879	11880	1
11879	11882	1
11880	11884	1
4901	4912	1
4912	4913	1
362	4912	1
4903	4910	1
4910	4911	1
4910	4920	1
4901	4902	1
4900	4901	1
4902	4903	1
4903	4904	1
4902	4906	1
4900	4905	1
4900	4908	1
4904	4905	1
4904	4907	1
4905	4909	1
5953	5960	1
5960	5961	1
5960	8014	1
5951	5962	1
5962	5963	1
5962	5970	1
5952	5953	1
5953	5954	1
5951	5952	1
5950	5951	1
5952	5956	1
5954	5955	1
5954	5957	1
5950	5955	1
5950	5958	1
5955	5959	1
11372	11383	1
11383	11384	1
11383	4954	1
11374	11381	1
11381	11382	1
11381	4185	1
11372	11373	1
11371	11372	1
11373	11374	1
11374	11375	1
11373	11377	1
11371	11376	1
11371	11379	1
11375	11376	1
11375	11378	1
11376	11380	1
12226	12237	1
12237	12238	1
1721	12237	1
12228	12235	1
12235	12236	1
12235	5692	1
12226	12227	1
12225	12226	1
12227	12228	1
12228	12229	1
12227	12231	1
12225	12230	1
12225	12233	1
12229	12230	1
12229	12232	1
12230	12234	1
10648	10659	1
10659	10660	1
10659	10667	1
10650	10657	1
10657	10658	1
10657	10878	1
10648	10649	1
10647	10648	1
10649	10650	1
10650	10651	1
10649	10653	1
10647	10652	1
10647	10655	1
10651	10652	1
10651	10654	1
10652	10656	1
3571	3582	1
3582	3583	1
3582	3584	1
3573	3580	1
3580	3581	1
3580	10497	1
3571	3572	1
3570	3571	1
3572	3573	1
3573	3574	1
3572	3576	1
3570	3575	1
3570	3578	1
3574	3575	1
3574	3577	1
3575	3579	1
493	504	1
504	505	1
504	9938	1
495	502	1
502	503	1
481	502	1
493	494	1
492	493	1
494	495	1
495	496	1
494	498	1
492	497	1
492	500	1
496	497	1
496	499	1
497	501	1
7772	7783	1
7783	7784	1
7783	5071	1
7774	7781	1
7781	7782	1
7781	7791	1
7772	7773	1
7771	7772	1
7773	7774	1
7774	7775	1
7773	7777	1
7771	7776	1
7771	7779	1
7775	7776	1
7775	7778	1
7776	7780	1
11904	11915	1
11915	11916	1
11915	5129	1
11906	11913	1
11913	11914	1
11913	10031	1
11904	11905	1
11903	11904	1
11905	11906	1
11906	11907	1
11905	11909	1
11903	11908	1
11903	11911	1
11907	11908	1
11907	11910	1
11908	11912	1
212	223	1
223	224	1
202	223	1
214	221	1
221	222	1
221	8361	1
212	213	1
211	212	1
213	214	1
214	215	1
213	217	1
211	216	1
211	219	1
215	216	1
215	218	1
216	220	1
10590	10601	1
10601	10602	1
10601	10609	1
10592	10599	1
10599	10600	1
10599	7913	1
10590	10591	1
10589	10590	1
10591	10592	1
10592	10593	1
10591	10595	1
10589	10594	1
10589	10597	1
10593	10594	1
10593	10596	1
10594	10598	1
20	31	1
31	32	1
31	4010	1
22	29	1
29	30	1
10	29	1
20	21	1
19	20	1
21	22	1
22	23	1
21	25	1
19	24	1
19	27	1
23	24	1
23	26	1
24	28	1
2748	2755	1
2755	2756	1
2755	5066	1
2746	2757	1
2757	2758	1
2757	2759	1
2747	2748	1
2748	2749	1
2746	2747	1
2745	2746	1
2747	2751	1
2749	2750	1
2749	2752	1
2745	2750	1
2745	2753	1
2750	2754	1
2211	2218	1
2218	2219	1
2197	2218	1
2209	2220	1
2220	2221	1
2220	8420	1
2210	2211	1
2211	2212	1
2209	2210	1
2208	2209	1
2210	2214	1
2212	2213	1
2212	2215	1
2208	2213	1
2208	2216	1
2213	2217	1
13724	13735	1
13735	13736	1
13735	10877	1
13726	13733	1
13733	13734	1
13733	10673	1
13724	13725	1
13723	13724	1
13725	13726	1
13726	13727	1
13725	13729	1
13723	13728	1
13723	13731	1
13727	13728	1
13727	13730	1
13728	13732	1
7233	7244	1
7244	7245	1
7244	6879	1
7235	7242	1
7242	7243	1
7242	7252	1
7233	7234	1
7232	7233	1
7234	7235	1
7235	7236	1
7234	7238	1
7232	7237	1
7232	7240	1
7236	7237	1
7236	7239	1
7237	7241	1
4102	4113	1
4113	4114	1
4113	4121	1
4104	4111	1
4111	4112	1
4111	5590	1
4102	4103	1
4101	4102	1
4103	4104	1
4104	4105	1
4103	4107	1
4101	4106	1
4101	4109	1
4105	4106	1
4105	4108	1
4106	4110	1
6111	6122	1
6122	6123	1
6122	6130	1
6113	6120	1
6120	6121	1
6120	6908	1
6111	6112	1
6110	6111	1
6112	6113	1
6113	6114	1
6112	6116	1
6110	6115	1
6110	6118	1
6114	6115	1
6114	6117	1
6115	6119	1
4293	4300	1
4300	4301	1
1042	4300	1
4291	4302	1
4302	4303	1
4302	4310	1
4292	4293	1
4293	4294	1
4291	4292	1
4290	4291	1
4292	4296	1
4294	4295	1
4294	4297	1
4290	4295	1
4290	4298	1
4295	4299	1
13292	13299	1
13299	13300	1
13299	9229	1
13290	13301	1
13301	13302	1
13301	8249	1
13291	13292	1
13292	13293	1
13290	13291	1
13289	13290	1
13291	13295	1
13293	13294	1
13293	13296	1
13289	13294	1
13289	13297	1
13294	13298	1
7073	7084	1
7084	7085	1
7084	11172	1
7075	7082	1
7082	7083	1
7082	7092	1
7073	7074	1
7072	7073	1
7074	7075	1
7075	7076	1
7074	7078	1
7072	7077	1
7072	7080	1
7076	7077	1
7076	7079	1
7077	7081	1
4160	4171	1
4171	4172	1
4171	5434	1
4162	4169	1
4169	4170	1
4169	4179	1
4160	4161	1
4159	4160	1
4161	4162	1
4162	4163	1
4161	4165	1
4159	4164	1
4159	4167	1
4163	4164	1
4163	4166	1
4164	4168	1
3588	3595	1
3595	3596	1
3595	10643	1
3586	3597	1
3597	3598	1
3597	3599	1
3587	3588	1
3588	3589	1
3586	3587	1
3585	3586	1
3587	3591	1
3589	3590	1
3589	3592	1
3585	3590	1
3585	3593	1
3590	3594	1
3348	3355	1
3355	3356	1
3355	9078	1
3346	3357	1
3357	3358	1
3357	3359	1
3347	3348	1
3348	3349	1
3346	3347	1
3345	3346	1
3347	3351	1
3349	3350	1
3349	3352	1
3345	3350	1
3345	3353	1
3350	3354	1
7585	7592	1
7592	7593	1
7592	7607	1
7583	7594	1
7594	7595	1
7594	5668	1
7585	7584	1
7586	7585	1
7584	7583	1
7583	7582	1
7584	7588	1
7586	7587	1
7586	7589	1
7582	7587	1
7582	7590	1
7587	7591	1
10458	10469	1
10469	10470	1
10469	10482	1
10460	10467	1
10467	10468	1
10467	6674	1
10458	10459	1
10457	10458	1
10459	10460	1
10460	10461	1
10459	10463	1
10457	10462	1
10457	10465	1
10461	10462	1
10461	10464	1
10462	10466	1
5381	5392	1
5392	5393	1
5392	5400	1
5383	5390	1
5390	5391	1
5390	10492	1
5381	5382	1
5380	5381	1
5382	5383	1
5383	5384	1
5382	5386	1
5380	5385	1
5380	5388	1
5384	5385	1
5384	5387	1
5385	5389	1
12156	12167	1
12167	12168	1
12167	9637	1
12158	12165	1
12165	12166	1
12165	5596	1
12156	12157	1
12155	12156	1
12157	12158	1
12158	12159	1
12157	12161	1
12155	12160	1
12155	12163	1
12159	12160	1
12159	12162	1
12160	12164	1
3839	3840	1
3839	3842	1
3839	3845	1
3840	3841	1
3840	3847	1
3841	3844	1
3841	3851	1
3843	3844	1
3844	3849	1
3842	3843	1
3843	3850	1
3842	3848	1
3850	3852	1
3845	3846	1
3851	3853	1
291	294	1
290	291	1
291	301	1
293	294	1
294	299	1
292	293	1
293	300	1
289	292	1
292	298	1
289	290	1
289	295	1
290	297	1
295	296	1
301	303	1
301	304	1
300	302	1
304	305	1
320	321	1
320	323	1
320	326	1
321	322	1
321	328	1
322	325	1
322	332	1
324	325	1
325	330	1
323	324	1
324	331	1
323	329	1
331	333	1
326	327	1
332	334	1
332	335	1
335	336	1
3854	3857	1
3854	3855	1
3854	3860	1
3857	3858	1
3857	3863	1
3858	3859	1
3858	3865	1
3856	3859	1
3859	3864	1
3855	3856	1
3856	3866	1
3855	3862	1
3866	3868	1
3860	3861	1
3865	3867	1
351	354	1
351	352	1
351	357	1
354	355	1
354	360	1
355	356	1
355	362	1
353	356	1
356	361	1
352	353	1
353	363	1
352	359	1
363	365	1
363	366	1
357	358	1
362	364	1
366	367	1
382	385	1
382	383	1
382	388	1
385	386	1
385	391	1
386	387	1
386	393	1
384	387	1
387	392	1
383	384	1
384	394	1
383	390	1
394	396	1
394	397	1
388	389	1
393	395	1
397	398	1
3883	3886	1
3883	3884	1
3883	3889	1
3886	3887	1
3886	3892	1
3887	3888	1
3887	3894	1
3885	3888	1
3888	3893	1
3884	3885	1
3885	3895	1
3884	3891	1
3895	3897	1
3889	3890	1
3894	3896	1
3912	3915	1
3912	3913	1
3912	3918	1
3915	3916	1
3915	3921	1
3916	3917	1
3916	3923	1
3914	3917	1
3917	3922	1
3913	3914	1
3914	3924	1
3913	3920	1
3924	3926	1
3918	3919	1
3923	3925	1
414	415	1
415	418	1
415	425	1
413	414	1
414	421	1
413	416	1
413	419	1
416	417	1
416	422	1
417	418	1
417	424	1
418	423	1
424	426	1
425	427	1
425	428	1
419	420	1
428	429	1
3941	3944	1
3941	3942	1
3941	3947	1
3944	3945	1
3944	3950	1
3945	3946	1
3945	3952	1
3943	3946	1
3946	3951	1
3942	3943	1
3943	3953	1
3942	3949	1
3953	3955	1
3947	3948	1
3952	3954	1
3970	3971	1
3970	3973	1
3970	3976	1
3971	3972	1
3971	3978	1
3972	3975	1
3972	3982	1
3974	3975	1
3975	3980	1
3973	3974	1
3974	3981	1
3973	3979	1
3981	3983	1
3976	3977	1
3982	3984	1
3999	4002	1
3999	4000	1
3999	4005	1
4002	4003	1
4002	4008	1
4003	4004	1
4003	4010	1
4001	4004	1
4004	4009	1
4000	4001	1
4001	4011	1
4000	4007	1
4011	4013	1
4005	4006	1
4010	4012	1
445	446	1
446	449	1
446	456	1
444	445	1
445	452	1
444	447	1
444	450	1
447	448	1
447	453	1
448	449	1
448	455	1
449	454	1
455	457	1
456	458	1
456	459	1
450	451	1
459	460	1
4028	4031	1
4028	4029	1
4028	4034	1
4031	4032	1
4031	4037	1
4032	4033	1
4032	4039	1
4030	4033	1
4033	4038	1
4029	4030	1
4030	4040	1
4029	4036	1
4040	4042	1
4034	4035	1
4039	4041	1
4057	4058	1
4057	4060	1
4057	4063	1
4058	4059	1
4058	4065	1
4059	4062	1
4059	4069	1
4061	4062	1
4062	4067	1
4060	4061	1
4061	4068	1
4060	4066	1
4068	4070	1
4063	4064	1
4069	4071	1
4086	4087	1
4086	4089	1
4086	4092	1
4087	4088	1
4087	4094	1
4088	4091	1
4088	4098	1
4090	4091	1
4091	4096	1
4089	4090	1
4090	4097	1
4089	4095	1
4097	4099	1
4092	4093	1
4098	4100	1
9	4	1
4	5	1
4	2	1
8	9	1
9	18	1
8	7	1
8	10	1
7	6	1
7	17	1
6	5	1
6	12	1
5	16	1
12	13	1
12	14	1
2	3	1
2	1	1
10	11	1
1	15	1
4115	4116	1
4115	4118	1
4115	4121	1
4116	4117	1
4116	4123	1
4117	4120	1
4117	4127	1
4119	4120	1
4120	4125	1
4118	4119	1
4119	4126	1
4118	4124	1
4126	4128	1
4121	4122	1
4127	4129	1
475	476	1
475	478	1
475	481	1
476	477	1
476	483	1
477	480	1
477	487	1
479	480	1
480	485	1
478	479	1
479	486	1
478	484	1
486	488	1
481	482	1
487	489	1
487	490	1
490	491	1
4144	4145	1
4144	4147	1
4144	4150	1
4145	4146	1
4145	4152	1
4146	4149	1
4146	4156	1
4148	4149	1
4149	4154	1
4147	4148	1
4148	4155	1
4147	4153	1
4155	4157	1
4150	4151	1
4156	4158	1
522	527	1
522	523	1
522	520	1
527	526	1
527	535	1
526	525	1
526	528	1
524	525	1
525	534	1
523	524	1
524	530	1
523	533	1
530	531	1
530	532	1
520	521	1
528	529	1
4173	4174	1
4173	4176	1
4173	4179	1
4174	4175	1
4174	4181	1
4175	4178	1
4175	4185	1
4177	4178	1
4178	4183	1
4176	4177	1
4177	4184	1
4176	4182	1
4184	4186	1
4179	4180	1
4185	4187	1
4202	4203	1
4202	4205	1
4202	4208	1
4203	4204	1
4203	4210	1
4204	4207	1
4204	4214	1
4206	4207	1
4207	4212	1
4205	4206	1
4206	4213	1
4205	4211	1
4213	4215	1
4208	4209	1
4214	4216	1
4231	4234	1
4231	4232	1
4231	4237	1
4234	4235	1
4234	4240	1
4235	4236	1
4235	4242	1
4233	4236	1
4236	4241	1
4232	4233	1
4233	4243	1
4232	4239	1
4243	4245	1
4237	4238	1
4242	4244	1
4260	4261	1
4260	4263	1
4260	4266	1
4261	4262	1
4261	4268	1
4262	4265	1
4262	4272	1
4264	4265	1
4265	4270	1
4263	4264	1
4264	4271	1
4263	4269	1
4271	4273	1
4266	4267	1
4272	4274	1
536	537	1
536	539	1
536	542	1
537	538	1
537	544	1
538	541	1
538	548	1
540	541	1
541	546	1
539	540	1
540	547	1
539	545	1
547	549	1
542	543	1
548	550	1
548	551	1
551	552	1
568	569	1
569	572	1
569	579	1
567	568	1
568	575	1
567	570	1
567	573	1
570	571	1
570	576	1
571	572	1
571	578	1
572	577	1
578	580	1
579	581	1
579	582	1
573	574	1
582	583	1
4275	4278	1
4275	4276	1
4275	4281	1
4278	4279	1
4278	4284	1
4279	4280	1
4279	4286	1
4277	4280	1
4280	4285	1
4276	4277	1
4277	4287	1
4276	4283	1
4287	4289	1
4281	4282	1
4286	4288	1
4306	4309	1
4305	4306	1
4306	4316	1
4308	4309	1
4309	4314	1
4307	4308	1
4308	4315	1
4304	4307	1
4307	4313	1
4304	4305	1
4304	4310	1
4305	4312	1
4310	4311	1
4316	4318	1
4315	4317	1
598	599	1
598	601	1
598	604	1
599	600	1
599	606	1
600	603	1
600	610	1
602	603	1
603	608	1
601	602	1
602	609	1
601	607	1
609	611	1
604	605	1
610	612	1
610	613	1
613	614	1
4333	4336	1
4333	4334	1
4333	4339	1
4336	4337	1
4336	4342	1
4337	4338	1
4337	4344	1
4335	4338	1
4338	4343	1
4334	4335	1
4335	4345	1
4334	4341	1
4345	4347	1
4339	4340	1
4344	4346	1
629	630	1
629	632	1
629	635	1
630	631	1
630	637	1
631	634	1
631	641	1
633	634	1
634	639	1
632	633	1
633	640	1
632	638	1
640	642	1
635	636	1
641	643	1
641	644	1
644	645	1
4362	4365	1
4362	4363	1
4362	4368	1
4365	4366	1
4365	4371	1
4366	4367	1
4366	4373	1
4364	4367	1
4367	4372	1
4363	4364	1
4364	4374	1
4363	4370	1
4374	4376	1
4368	4369	1
4373	4375	1
4377	4378	1
4377	4380	1
4377	4383	1
4378	4379	1
4378	4385	1
4379	4382	1
4379	4389	1
4381	4382	1
4382	4387	1
4380	4381	1
4381	4388	1
4380	4386	1
4388	4390	1
4383	4384	1
4389	4391	1
4406	4407	1
4406	4409	1
4406	4412	1
4407	4408	1
4407	4414	1
4408	4411	1
4408	4418	1
4410	4411	1
4411	4416	1
4409	4410	1
4410	4417	1
4409	4415	1
4417	4419	1
4412	4413	1
4418	4420	1
4435	4436	1
4435	4438	1
4435	4441	1
4436	4437	1
4436	4443	1
4437	4440	1
4437	4447	1
4439	4440	1
4440	4445	1
4438	4439	1
4439	4446	1
4438	4444	1
4446	4448	1
4441	4442	1
4447	4449	1
4464	4467	1
4464	4465	1
4464	4470	1
4467	4468	1
4467	4473	1
4468	4469	1
4468	4475	1
4466	4469	1
4469	4474	1
4465	4466	1
4466	4476	1
4465	4472	1
4476	4478	1
4470	4471	1
4475	4477	1
661	662	1
662	665	1
662	672	1
660	661	1
661	668	1
660	663	1
660	666	1
663	664	1
663	669	1
664	665	1
664	671	1
665	670	1
671	673	1
672	674	1
672	675	1
666	667	1
675	676	1
4493	4494	1
4493	4496	1
4493	4499	1
4494	4495	1
4494	4501	1
4495	4498	1
4495	4505	1
4497	4498	1
4498	4503	1
4496	4497	1
4497	4504	1
4496	4502	1
4504	4506	1
4499	4500	1
4505	4507	1
691	694	1
691	692	1
691	697	1
694	695	1
694	700	1
695	696	1
695	702	1
693	696	1
696	701	1
692	693	1
693	703	1
692	699	1
703	705	1
703	706	1
697	698	1
702	704	1
706	707	1
4522	4525	1
4522	4523	1
4522	4528	1
4525	4526	1
4525	4531	1
4526	4527	1
4526	4533	1
4524	4527	1
4527	4532	1
4523	4524	1
4524	4534	1
4523	4530	1
4534	4536	1
4528	4529	1
4533	4535	1
4551	4554	1
4551	4552	1
4551	4557	1
4554	4555	1
4554	4560	1
4555	4556	1
4555	4562	1
4553	4556	1
4556	4561	1
4552	4553	1
4553	4563	1
4552	4559	1
4563	4565	1
4557	4558	1
4562	4564	1
4580	4583	1
4580	4581	1
4580	4586	1
4583	4584	1
4583	4589	1
4584	4585	1
4584	4591	1
4582	4585	1
4585	4590	1
4581	4582	1
4582	4592	1
4581	4588	1
4592	4594	1
4586	4587	1
4591	4593	1
4609	4610	1
4609	4612	1
4609	4615	1
4610	4611	1
4610	4617	1
4611	4614	1
4611	4621	1
4613	4614	1
4614	4619	1
4612	4613	1
4613	4620	1
4612	4618	1
4620	4622	1
4615	4616	1
4621	4623	1
722	725	1
722	723	1
722	728	1
725	726	1
725	731	1
726	727	1
726	733	1
724	727	1
727	732	1
723	724	1
724	734	1
723	730	1
734	736	1
734	737	1
728	729	1
733	735	1
737	738	1
753	756	1
753	754	1
753	759	1
756	757	1
756	762	1
757	758	1
757	764	1
755	758	1
758	763	1
754	755	1
755	765	1
754	761	1
765	767	1
765	768	1
759	760	1
764	766	1
768	769	1
784	785	1
784	787	1
784	790	1
785	786	1
785	792	1
786	789	1
786	796	1
788	789	1
789	794	1
787	788	1
788	795	1
787	793	1
795	797	1
790	791	1
796	798	1
796	799	1
799	800	1
4639	4640	1
4640	4643	1
4640	4650	1
4638	4639	1
4639	4646	1
4638	4641	1
4638	4644	1
4641	4642	1
4641	4647	1
4642	4643	1
4642	4649	1
4643	4648	1
4649	4651	1
4650	4652	1
4644	4645	1
4671	4672	1
4671	4670	1
4671	4678	1
4672	4669	1
4672	4677	1
4669	4668	1
4669	4679	1
4667	4668	1
4668	4675	1
4670	4667	1
4667	4673	1
4670	4676	1
4673	4674	1
4678	4680	1
4679	4681	1
4696	4697	1
4696	4699	1
4696	4702	1
4697	4698	1
4697	4704	1
4698	4701	1
4698	4708	1
4700	4701	1
4701	4706	1
4699	4700	1
4700	4707	1
4699	4705	1
4707	4709	1
4702	4703	1
4708	4710	1
38	37	1
39	38	1
38	44	1
36	37	1
37	48	1
41	36	1
36	34	1
40	41	1
41	50	1
40	39	1
40	42	1
39	49	1
42	43	1
44	45	1
44	46	1
34	35	1
34	33	1
33	47	1
4725	4726	1
4725	4728	1
4725	4731	1
4726	4727	1
4726	4733	1
4727	4730	1
4727	4737	1
4729	4730	1
4730	4735	1
4728	4729	1
4729	4736	1
4728	4734	1
4736	4738	1
4731	4732	1
4737	4739	1
4754	4757	1
4754	4755	1
4754	4760	1
4757	4758	1
4757	4763	1
4758	4759	1
4758	4765	1
4756	4759	1
4759	4764	1
4755	4756	1
4756	4766	1
4755	4762	1
4766	4768	1
4760	4761	1
4765	4767	1
816	817	1
817	820	1
817	827	1
815	816	1
816	823	1
815	818	1
815	821	1
818	819	1
818	824	1
819	820	1
819	826	1
820	825	1
826	828	1
827	829	1
827	830	1
821	822	1
830	831	1
4783	4786	1
4783	4784	1
4783	4789	1
4786	4787	1
4786	4792	1
4787	4788	1
4787	4794	1
4785	4788	1
4788	4793	1
4784	4785	1
4785	4795	1
4784	4791	1
4795	4797	1
4789	4790	1
4794	4796	1
4812	4815	1
4812	4813	1
4812	4818	1
4815	4816	1
4815	4821	1
4816	4817	1
4816	4823	1
4814	4817	1
4817	4822	1
4813	4814	1
4814	4824	1
4813	4820	1
4824	4826	1
4818	4819	1
4823	4825	1
848	851	1
847	848	1
848	858	1
850	851	1
851	856	1
849	850	1
850	857	1
846	849	1
849	855	1
846	847	1
846	852	1
847	854	1
852	853	1
858	860	1
858	861	1
857	859	1
861	862	1
4841	4844	1
4841	4842	1
4841	4847	1
4844	4845	1
4844	4850	1
4845	4846	1
4845	4852	1
4843	4846	1
4846	4851	1
4842	4843	1
4843	4853	1
4842	4849	1
4853	4855	1
4847	4848	1
4852	4854	1
4856	4859	1
4856	4857	1
4856	4862	1
4859	4860	1
4859	4865	1
4860	4861	1
4860	4867	1
4858	4861	1
4861	4866	1
4857	4858	1
4858	4868	1
4857	4864	1
4868	4870	1
4862	4863	1
4867	4869	1
4885	4886	1
4885	4888	1
4885	4891	1
4886	4887	1
4886	4893	1
4887	4890	1
4887	4897	1
4889	4890	1
4890	4895	1
4888	4889	1
4889	4896	1
4888	4894	1
4896	4898	1
4891	4892	1
4897	4899	1
4914	4917	1
4914	4915	1
4914	4920	1
4917	4918	1
4917	4923	1
4918	4919	1
4918	4925	1
4916	4919	1
4919	4924	1
4915	4916	1
4916	4926	1
4915	4922	1
4926	4928	1
4920	4921	1
4925	4927	1
4943	4944	1
4943	4946	1
4943	4949	1
4944	4945	1
4944	4951	1
4945	4948	1
4945	4955	1
4947	4948	1
4948	4953	1
4946	4947	1
4947	4954	1
4946	4952	1
4954	4956	1
4949	4950	1
4955	4957	1
893	898	1
893	894	1
893	891	1
898	897	1
898	906	1
897	896	1
897	899	1
895	896	1
896	905	1
894	895	1
895	901	1
894	904	1
901	902	1
901	903	1
891	892	1
899	900	1
4972	4973	1
4972	4975	1
4972	4978	1
4973	4974	1
4973	4980	1
4974	4977	1
4974	4984	1
4976	4977	1
4977	4982	1
4975	4976	1
4976	4983	1
4975	4981	1
4983	4985	1
4978	4979	1
4984	4986	1
907	910	1
907	908	1
907	913	1
910	911	1
910	916	1
911	912	1
911	918	1
909	912	1
912	917	1
908	909	1
909	919	1
908	915	1
919	921	1
919	922	1
913	914	1
918	920	1
922	923	1
4987	4988	1
4987	4990	1
4987	4993	1
4988	4989	1
4988	4995	1
4989	4992	1
4989	4999	1
4991	4992	1
4992	4997	1
4990	4991	1
4991	4998	1
4990	4996	1
4998	5000	1
4993	4994	1
4999	5001	1
5016	5017	1
5016	5019	1
5016	5022	1
5017	5018	1
5017	5024	1
5018	5021	1
5018	5028	1
5020	5021	1
5021	5026	1
5019	5020	1
5020	5027	1
5019	5025	1
5027	5029	1
5022	5023	1
5028	5030	1
938	939	1
938	941	1
938	944	1
939	940	1
939	946	1
940	943	1
940	950	1
942	943	1
943	948	1
941	942	1
942	949	1
941	947	1
949	951	1
944	945	1
950	952	1
950	953	1
953	954	1
5045	5046	1
5045	5048	1
5045	5051	1
5046	5047	1
5046	5053	1
5047	5050	1
5047	5057	1
5049	5050	1
5050	5055	1
5048	5049	1
5049	5056	1
5048	5054	1
5056	5058	1
5051	5052	1
5057	5059	1
5060	5061	1
5060	5063	1
5060	5066	1
5061	5062	1
5061	5068	1
5062	5065	1
5062	5072	1
5064	5065	1
5065	5070	1
5063	5064	1
5064	5071	1
5063	5069	1
5071	5073	1
5066	5067	1
5072	5074	1
5089	5090	1
5089	5092	1
5089	5095	1
5090	5091	1
5090	5097	1
5091	5094	1
5091	5101	1
5093	5094	1
5094	5099	1
5092	5093	1
5093	5100	1
5092	5098	1
5100	5102	1
5095	5096	1
5101	5103	1
5118	5119	1
5118	5121	1
5118	5124	1
5119	5120	1
5119	5126	1
5120	5123	1
5120	5130	1
5122	5123	1
5123	5128	1
5121	5122	1
5122	5129	1
5121	5127	1
5129	5131	1
5124	5125	1
5130	5132	1
5147	5150	1
5147	5148	1
5147	5153	1
5150	5151	1
5150	5156	1
5151	5152	1
5151	5158	1
5149	5152	1
5152	5157	1
5148	5149	1
5149	5159	1
5148	5155	1
5159	5161	1
5153	5154	1
5158	5160	1
5176	5179	1
5176	5177	1
5176	5182	1
5179	5180	1
5179	5185	1
5180	5181	1
5180	5187	1
5178	5181	1
5181	5186	1
5177	5178	1
5178	5188	1
5177	5184	1
5188	5190	1
5182	5183	1
5187	5189	1
969	972	1
969	970	1
969	975	1
972	973	1
972	978	1
973	974	1
973	980	1
971	974	1
974	979	1
970	971	1
971	981	1
970	977	1
981	983	1
981	984	1
975	976	1
980	982	1
984	985	1
1000	1001	1
1000	1003	1
1000	1006	1
1001	1002	1
1001	1008	1
1002	1005	1
1002	1012	1
1004	1005	1
1005	1010	1
1003	1004	1
1004	1011	1
1003	1009	1
1011	1013	1
1006	1007	1
1012	1014	1
1012	1015	1
1015	1016	1
5205	5208	1
5205	5206	1
5205	5211	1
5208	5209	1
5208	5214	1
5209	5210	1
5209	5216	1
5207	5210	1
5210	5215	1
5206	5207	1
5207	5217	1
5206	5213	1
5217	5219	1
5211	5212	1
5216	5218	1
5234	5237	1
5234	5235	1
5234	5240	1
5237	5238	1
5237	5243	1
5238	5239	1
5238	5245	1
5236	5239	1
5239	5244	1
5235	5236	1
5236	5246	1
5235	5242	1
5246	5248	1
5240	5241	1
5245	5247	1
5263	5264	1
5263	5266	1
5263	5269	1
5264	5265	1
5264	5271	1
5265	5268	1
5265	5275	1
5267	5268	1
5268	5273	1
5266	5267	1
5267	5274	1
5266	5272	1
5274	5276	1
5269	5270	1
5275	5277	1
5292	5293	1
5292	5295	1
5292	5298	1
5293	5294	1
5293	5300	1
5294	5297	1
5294	5304	1
5296	5297	1
5297	5302	1
5295	5296	1
5296	5303	1
5295	5301	1
5303	5305	1
5298	5299	1
5304	5306	1
5321	5324	1
5321	5322	1
5321	5327	1
5324	5325	1
5324	5330	1
5325	5326	1
5325	5332	1
5323	5326	1
5326	5331	1
5322	5323	1
5323	5333	1
5322	5329	1
5333	5335	1
5327	5328	1
5332	5334	1
5336	5339	1
5336	5337	1
5336	5342	1
5339	5340	1
5339	5345	1
5340	5341	1
5340	5347	1
5338	5341	1
5341	5346	1
5337	5338	1
5338	5348	1
5337	5344	1
5348	5350	1
5342	5343	1
5347	5349	1
5365	5368	1
5365	5366	1
5365	5371	1
5368	5369	1
5368	5374	1
5369	5370	1
5369	5376	1
5367	5370	1
5370	5375	1
5366	5367	1
5367	5377	1
5366	5373	1
5377	5379	1
5371	5372	1
5376	5378	1
5394	5397	1
5394	5395	1
5394	5400	1
5397	5398	1
5397	5403	1
5398	5399	1
5398	5405	1
5396	5399	1
5399	5404	1
5395	5396	1
5396	5406	1
5395	5402	1
5406	5408	1
5400	5401	1
5405	5407	1
5423	5426	1
5423	5424	1
5423	5429	1
5426	5427	1
5426	5432	1
5427	5428	1
5427	5434	1
5425	5428	1
5428	5433	1
5424	5425	1
5425	5435	1
5424	5431	1
5435	5437	1
5429	5430	1
5434	5436	1
5452	5455	1
5452	5453	1
5452	5458	1
5455	5456	1
5455	5461	1
5456	5457	1
5456	5463	1
5454	5457	1
5457	5462	1
5453	5454	1
5454	5464	1
5453	5460	1
5464	5466	1
5458	5459	1
5463	5465	1
5467	5468	1
5467	5470	1
5467	5473	1
5468	5469	1
5468	5475	1
5469	5472	1
5469	5479	1
5471	5472	1
5472	5477	1
5470	5471	1
5471	5478	1
5470	5476	1
5478	5480	1
5473	5474	1
5479	5481	1
5496	5497	1
5496	5499	1
5496	5502	1
5497	5498	1
5497	5504	1
5498	5501	1
5498	5508	1
5500	5501	1
5501	5506	1
5499	5500	1
5500	5507	1
5499	5505	1
5507	5509	1
5502	5503	1
5508	5510	1
5525	5528	1
5525	5526	1
5525	5531	1
5528	5529	1
5528	5534	1
5529	5530	1
5529	5536	1
5527	5530	1
5530	5535	1
5526	5527	1
5527	5537	1
5526	5533	1
5537	5539	1
5531	5532	1
5536	5538	1
1031	1034	1
1031	1032	1
1031	1037	1
1034	1035	1
1034	1040	1
1035	1036	1
1035	1042	1
1033	1036	1
1036	1041	1
1032	1033	1
1033	1043	1
1032	1039	1
1043	1045	1
1043	1046	1
1037	1038	1
1042	1044	1
1046	1047	1
5554	5557	1
5554	5555	1
5554	5560	1
5557	5558	1
5557	5563	1
5558	5559	1
5558	5565	1
5556	5559	1
5559	5564	1
5555	5556	1
5556	5566	1
5555	5562	1
5566	5568	1
5560	5561	1
5565	5567	1
5570	5571	1
5571	5574	1
5571	5581	1
5569	5570	1
5570	5577	1
5569	5572	1
5569	5575	1
5572	5573	1
5572	5578	1
5573	5574	1
5573	5580	1
5574	5579	1
5580	5582	1
5581	5583	1
5575	5576	1
5584	5587	1
5584	5585	1
5584	5590	1
5587	5588	1
5587	5593	1
5588	5589	1
5588	5595	1
5586	5589	1
5589	5594	1
5585	5586	1
5586	5596	1
5585	5592	1
5596	5598	1
5590	5591	1
5595	5597	1
5613	5616	1
5613	5614	1
5613	5619	1
5616	5617	1
5616	5622	1
5617	5618	1
5617	5624	1
5615	5618	1
5618	5623	1
5614	5615	1
5615	5625	1
5614	5621	1
5625	5627	1
5619	5620	1
5624	5626	1
1078	1079	1
1078	1083	1
1078	1076	1
1079	1080	1
1079	1089	1
1080	1081	1
1080	1086	1
1082	1081	1
1081	1090	1
1083	1082	1
1082	1084	1
1083	1091	1
1084	1085	1
1076	1077	1
1086	1087	1
1086	1088	1
5628	5631	1
5628	5629	1
5628	5634	1
5631	5632	1
5631	5637	1
5632	5633	1
5632	5639	1
5630	5633	1
5633	5638	1
5629	5630	1
5630	5640	1
5629	5636	1
5640	5642	1
5634	5635	1
5639	5641	1
1092	1093	1
1092	1095	1
1092	1098	1
1093	1094	1
1093	1100	1
1094	1097	1
1094	1104	1
1096	1097	1
1097	1102	1
1095	1096	1
1096	1103	1
1095	1101	1
1103	1105	1
1098	1099	1
1104	1106	1
1104	1107	1
1107	1108	1
5657	5660	1
5657	5658	1
5657	5663	1
5660	5661	1
5660	5666	1
5661	5662	1
5661	5668	1
5659	5662	1
5662	5667	1
5658	5659	1
5659	5669	1
5658	5665	1
5669	5671	1
5663	5664	1
5668	5670	1
1124	1125	1
1125	1128	1
1125	1135	1
1123	1124	1
1124	1131	1
1123	1126	1
1123	1129	1
1126	1127	1
1126	1132	1
1127	1128	1
1127	1134	1
1128	1133	1
1134	1136	1
1135	1137	1
1135	1138	1
1129	1130	1
1138	1139	1
5690	5689	1
5691	5690	1
5690	5697	1
5686	5689	1
5689	5695	1
5687	5686	1
5686	5692	1
5688	5687	1
5687	5694	1
5688	5691	1
5688	5698	1
5691	5696	1
5698	5700	1
5697	5699	1
5692	5693	1
5715	5716	1
5715	5718	1
5715	5721	1
5716	5717	1
5716	5723	1
5717	5720	1
5717	5727	1
5719	5720	1
5720	5725	1
5718	5719	1
5719	5726	1
5718	5724	1
5726	5728	1
5721	5722	1
5727	5729	1
5730	5731	1
5730	5733	1
5730	5736	1
5731	5732	1
5731	5738	1
5732	5735	1
5732	5742	1
5734	5735	1
5735	5740	1
5733	5734	1
5734	5741	1
5733	5739	1
5741	5743	1
5736	5737	1
5742	5744	1
1154	1155	1
1154	1157	1
1154	1160	1
1155	1156	1
1155	1162	1
1156	1159	1
1156	1166	1
1158	1159	1
1159	1164	1
1157	1158	1
1158	1165	1
1157	1163	1
1165	1167	1
1160	1161	1
1166	1168	1
1166	1169	1
1169	1170	1
5759	5762	1
5759	5760	1
5759	5765	1
5762	5763	1
5762	5768	1
5763	5764	1
5763	5770	1
5761	5764	1
5764	5769	1
5760	5761	1
5761	5771	1
5760	5767	1
5771	5773	1
5765	5766	1
5770	5772	1
1171	1172	1
1171	1174	1
1171	1177	1
1172	1173	1
1172	1179	1
1173	1176	1
1173	1183	1
1175	1176	1
1176	1181	1
1174	1175	1
1175	1182	1
1174	1180	1
1182	1184	1
1177	1178	1
1183	1185	1
1183	1186	1
1186	1187	1
1203	1204	1
1204	1207	1
1204	1214	1
1202	1203	1
1203	1210	1
1202	1205	1
1202	1208	1
1205	1206	1
1205	1211	1
1206	1207	1
1206	1213	1
1207	1212	1
1213	1215	1
1214	1216	1
1214	1217	1
1208	1209	1
1217	1218	1
5792	5793	1
5791	5792	1
5792	5799	1
5790	5793	1
5793	5798	1
5789	5790	1
5790	5800	1
5788	5789	1
5789	5796	1
5788	5791	1
5788	5794	1
5791	5797	1
5794	5795	1
5799	5801	1
5800	5802	1
5803	5806	1
5803	5804	1
5803	5809	1
5806	5807	1
5806	5812	1
5807	5808	1
5807	5814	1
5805	5808	1
5808	5813	1
5804	5805	1
5805	5815	1
5804	5811	1
5815	5817	1
5809	5810	1
5814	5816	1
5832	5835	1
5832	5833	1
5832	5838	1
5835	5836	1
5835	5841	1
5836	5837	1
5836	5843	1
5834	5837	1
5837	5842	1
5833	5834	1
5834	5844	1
5833	5840	1
5844	5846	1
5838	5839	1
5843	5845	1
5861	5862	1
5861	5864	1
5861	5867	1
5862	5863	1
5862	5869	1
5863	5866	1
5863	5873	1
5865	5866	1
5866	5871	1
5864	5865	1
5865	5872	1
5864	5870	1
5872	5874	1
5867	5868	1
5873	5875	1
5890	5891	1
5890	5893	1
5890	5896	1
5891	5892	1
5891	5898	1
5892	5895	1
5892	5902	1
5894	5895	1
5895	5900	1
5893	5894	1
5894	5901	1
5893	5899	1
5901	5903	1
5896	5897	1
5902	5904	1
5905	5908	1
5905	5906	1
5905	5911	1
5908	5909	1
5908	5914	1
5909	5910	1
5909	5916	1
5907	5910	1
5910	5915	1
5906	5907	1
5907	5917	1
5906	5913	1
5917	5919	1
5911	5912	1
5916	5918	1
5920	5923	1
5920	5921	1
5920	5926	1
5923	5924	1
5923	5929	1
5924	5925	1
5924	5931	1
5922	5925	1
5925	5930	1
5921	5922	1
5922	5932	1
5921	5928	1
5932	5934	1
5926	5927	1
5931	5933	1
1251	1252	1
1252	1253	1
1252	1258	1
1250	1251	1
1251	1261	1
1250	1255	1
1250	1248	1
1255	1254	1
1255	1263	1
1254	1253	1
1254	1256	1
1253	1262	1
1256	1257	1
1258	1259	1
1258	1260	1
1248	1249	1
5935	5936	1
5935	5938	1
5935	5941	1
5936	5937	1
5936	5943	1
5937	5940	1
5937	5947	1
5939	5940	1
5940	5945	1
5938	5939	1
5939	5946	1
5938	5944	1
5946	5948	1
5941	5942	1
5947	5949	1
5964	5967	1
5964	5965	1
5964	5970	1
5967	5968	1
5967	5973	1
5968	5969	1
5968	5975	1
5966	5969	1
5969	5974	1
5965	5966	1
5966	5976	1
5965	5972	1
5976	5978	1
5970	5971	1
5975	5977	1
5993	5996	1
5993	5994	1
5993	5999	1
5996	5997	1
5996	6002	1
5997	5998	1
5997	6004	1
5995	5998	1
5998	6003	1
5994	5995	1
5995	6005	1
5994	6001	1
6005	6007	1
5999	6000	1
6004	6006	1
6008	6011	1
6008	6009	1
6008	6014	1
6011	6012	1
6011	6017	1
6012	6013	1
6012	6019	1
6010	6013	1
6013	6018	1
6009	6010	1
6010	6020	1
6009	6016	1
6020	6022	1
6014	6015	1
6019	6021	1
1264	1265	1
1264	1267	1
1264	1270	1
1265	1266	1
1265	1272	1
1266	1269	1
1266	1276	1
1268	1269	1
1269	1274	1
1267	1268	1
1268	1275	1
1267	1273	1
1275	1277	1
1270	1271	1
1276	1278	1
1276	1279	1
1279	1280	1
6037	6040	1
6037	6038	1
6037	6043	1
6040	6041	1
6040	6046	1
6041	6042	1
6041	6048	1
6039	6042	1
6042	6047	1
6038	6039	1
6039	6049	1
6038	6045	1
6049	6051	1
6043	6044	1
6048	6050	1
6066	6069	1
6066	6067	1
6066	6072	1
6069	6070	1
6069	6075	1
6070	6071	1
6070	6077	1
6068	6071	1
6071	6076	1
6067	6068	1
6068	6078	1
6067	6074	1
6078	6080	1
6072	6073	1
6077	6079	1
1297	1298	1
1297	1302	1
1297	1295	1
1298	1299	1
1298	1308	1
1299	1300	1
1299	1305	1
1301	1300	1
1300	1309	1
1302	1301	1
1301	1303	1
1302	1310	1
1303	1304	1
1295	1296	1
1305	1306	1
1305	1307	1
6099	6100	1
6099	6098	1
6099	6106	1
6100	6097	1
6100	6105	1
6097	6096	1
6097	6107	1
6095	6096	1
6096	6103	1
6098	6095	1
6095	6101	1
6098	6104	1
6101	6102	1
6106	6108	1
6107	6109	1
6124	6127	1
6124	6125	1
6124	6130	1
6127	6128	1
6127	6133	1
6128	6129	1
6128	6135	1
6126	6129	1
6129	6134	1
6125	6126	1
6126	6136	1
6125	6132	1
6136	6138	1
6130	6131	1
6135	6137	1
6153	6154	1
6153	6156	1
6153	6159	1
6154	6155	1
6154	6161	1
6155	6158	1
6155	6165	1
6157	6158	1
6158	6163	1
6156	6157	1
6157	6164	1
6156	6162	1
6164	6166	1
6159	6160	1
6165	6167	1
6182	6183	1
6182	6185	1
6182	6188	1
6183	6184	1
6183	6190	1
6184	6187	1
6184	6194	1
6186	6187	1
6187	6192	1
6185	6186	1
6186	6193	1
6185	6191	1
6193	6195	1
6188	6189	1
6194	6196	1
6211	6212	1
6211	6214	1
6211	6217	1
6212	6213	1
6212	6219	1
6213	6216	1
6213	6223	1
6215	6216	1
6216	6221	1
6214	6215	1
6215	6222	1
6214	6220	1
6222	6224	1
6217	6218	1
6223	6225	1
6226	6229	1
6226	6227	1
6226	6232	1
6229	6230	1
6229	6235	1
6230	6231	1
6230	6237	1
6228	6231	1
6231	6236	1
6227	6228	1
6228	6238	1
6227	6234	1
6238	6240	1
6232	6233	1
6237	6239	1
6255	6258	1
6255	6256	1
6255	6261	1
6258	6259	1
6258	6264	1
6259	6260	1
6259	6266	1
6257	6260	1
6260	6265	1
6256	6257	1
6257	6267	1
6256	6263	1
6267	6269	1
6261	6262	1
6266	6268	1
6270	6273	1
6270	6271	1
6270	6276	1
6273	6274	1
6273	6279	1
6274	6275	1
6274	6281	1
6272	6275	1
6275	6280	1
6271	6272	1
6272	6282	1
6271	6278	1
6282	6284	1
6276	6277	1
6281	6283	1
6299	6302	1
6299	6300	1
6299	6305	1
6302	6303	1
6302	6308	1
6303	6304	1
6303	6310	1
6301	6304	1
6304	6309	1
6300	6301	1
6301	6311	1
6300	6307	1
6311	6313	1
6305	6306	1
6310	6312	1
6314	6317	1
6314	6315	1
6314	6320	1
6317	6318	1
6317	6323	1
6318	6319	1
6318	6325	1
6316	6319	1
6319	6324	1
6315	6316	1
6316	6326	1
6315	6322	1
6326	6328	1
6320	6321	1
6325	6327	1
6329	6330	1
6329	6332	1
6329	6335	1
6330	6331	1
6330	6337	1
6331	6334	1
6331	6341	1
6333	6334	1
6334	6339	1
6332	6333	1
6333	6340	1
6332	6338	1
6340	6342	1
6335	6336	1
6341	6343	1
6358	6359	1
6358	6361	1
6358	6364	1
6359	6360	1
6359	6366	1
6360	6363	1
6360	6370	1
6362	6363	1
6363	6368	1
6361	6362	1
6362	6369	1
6361	6367	1
6369	6371	1
6364	6365	1
6370	6372	1
6387	6390	1
6387	6388	1
6387	6393	1
6390	6391	1
6390	6396	1
6391	6392	1
6391	6398	1
6389	6392	1
6392	6397	1
6388	6389	1
6389	6399	1
6388	6395	1
6399	6401	1
6393	6394	1
6398	6400	1
6416	6419	1
6416	6417	1
6416	6422	1
6419	6420	1
6419	6425	1
6420	6421	1
6420	6427	1
6418	6421	1
6421	6426	1
6417	6418	1
6418	6428	1
6417	6424	1
6428	6430	1
6422	6423	1
6427	6429	1
6445	6448	1
6445	6446	1
6445	6451	1
6448	6449	1
6448	6454	1
6449	6450	1
6449	6456	1
6447	6450	1
6450	6455	1
6446	6447	1
6447	6457	1
6446	6453	1
6457	6459	1
6451	6452	1
6456	6458	1
6475	6476	1
6476	6479	1
6476	6486	1
6474	6475	1
6475	6482	1
6474	6477	1
6474	6480	1
6477	6478	1
6477	6483	1
6478	6479	1
6478	6485	1
6479	6484	1
6485	6487	1
6486	6488	1
6480	6481	1
6503	6506	1
6503	6504	1
6503	6509	1
6506	6507	1
6506	6512	1
6507	6508	1
6507	6514	1
6505	6508	1
6508	6513	1
6504	6505	1
6505	6515	1
6504	6511	1
6515	6517	1
6509	6510	1
6514	6516	1
1312	1313	1
1313	1316	1
1313	1323	1
1311	1312	1
1312	1319	1
1311	1314	1
1311	1317	1
1314	1315	1
1314	1320	1
1315	1316	1
1315	1322	1
1316	1321	1
1322	1324	1
1323	1325	1
1323	1326	1
1317	1318	1
1326	1327	1
1346	1347	1
1346	1345	1
1346	1353	1
1347	1344	1
1347	1352	1
1344	1343	1
1344	1354	1
1342	1343	1
1343	1350	1
1345	1342	1
1342	1348	1
1345	1351	1
1348	1349	1
1353	1355	1
1354	1356	1
1354	1357	1
1357	1358	1
6534	6533	1
6534	6537	1
6534	6544	1
6533	6532	1
6533	6540	1
6532	6535	1
6532	6538	1
6536	6535	1
6535	6541	1
6537	6536	1
6536	6543	1
6537	6542	1
6543	6545	1
6544	6546	1
6538	6539	1
6547	6548	1
6547	6550	1
6547	6553	1
6548	6549	1
6548	6555	1
6549	6552	1
6549	6559	1
6551	6552	1
6552	6557	1
6550	6551	1
6551	6558	1
6550	6556	1
6558	6560	1
6553	6554	1
6559	6561	1
6576	6577	1
6576	6579	1
6576	6582	1
6577	6578	1
6577	6584	1
6578	6581	1
6578	6588	1
6580	6581	1
6581	6586	1
6579	6580	1
6580	6587	1
6579	6585	1
6587	6589	1
6582	6583	1
6588	6590	1
6605	6606	1
6605	6608	1
6605	6611	1
6606	6607	1
6606	6613	1
6607	6610	1
6607	6617	1
6609	6610	1
6610	6615	1
6608	6609	1
6609	6616	1
6608	6614	1
6616	6618	1
6611	6612	1
6617	6619	1
6634	6635	1
6634	6637	1
6634	6640	1
6635	6636	1
6635	6642	1
6636	6639	1
6636	6646	1
6638	6639	1
6639	6644	1
6637	6638	1
6638	6645	1
6637	6643	1
6645	6647	1
6640	6641	1
6646	6648	1
6663	6666	1
6663	6664	1
6663	6669	1
6666	6667	1
6666	6672	1
6667	6668	1
6667	6674	1
6665	6668	1
6668	6673	1
6664	6665	1
6665	6675	1
6664	6671	1
6675	6677	1
6669	6670	1
6674	6676	1
6696	6697	1
6695	6696	1
6696	6703	1
6694	6697	1
6697	6702	1
6693	6694	1
6694	6704	1
6692	6693	1
6693	6700	1
6692	6695	1
6692	6698	1
6695	6701	1
6698	6699	1
6703	6705	1
6704	6706	1
6707	6708	1
6707	6710	1
6707	6713	1
6708	6709	1
6708	6715	1
6709	6712	1
6709	6719	1
6711	6712	1
6712	6717	1
6710	6711	1
6711	6718	1
6710	6716	1
6718	6720	1
6713	6714	1
6719	6721	1
6736	6737	1
6736	6739	1
6736	6742	1
6737	6738	1
6737	6744	1
6738	6741	1
6738	6748	1
6740	6741	1
6741	6746	1
6739	6740	1
6740	6747	1
6739	6745	1
6747	6749	1
6742	6743	1
6748	6750	1
6765	6766	1
6765	6768	1
6765	6771	1
6766	6767	1
6766	6773	1
6767	6770	1
6767	6777	1
6769	6770	1
6770	6775	1
6768	6769	1
6769	6776	1
6768	6774	1
6776	6778	1
6771	6772	1
6777	6779	1
6780	6781	1
6780	6783	1
6780	6786	1
6781	6782	1
6781	6788	1
6782	6785	1
6782	6792	1
6784	6785	1
6785	6790	1
6783	6784	1
6784	6791	1
6783	6789	1
6791	6793	1
6786	6787	1
6792	6794	1
6809	6810	1
6809	6812	1
6809	6815	1
6810	6811	1
6810	6817	1
6811	6814	1
6811	6821	1
6813	6814	1
6814	6819	1
6812	6813	1
6813	6820	1
6812	6818	1
6820	6822	1
6815	6816	1
6821	6823	1
6838	6839	1
6838	6841	1
6838	6844	1
6839	6840	1
6839	6846	1
6840	6843	1
6840	6850	1
6842	6843	1
6843	6848	1
6841	6842	1
6842	6849	1
6841	6847	1
6849	6851	1
6844	6845	1
6850	6852	1
6867	6870	1
6867	6868	1
6867	6873	1
6870	6871	1
6870	6876	1
6871	6872	1
6871	6878	1
6869	6872	1
6872	6877	1
6868	6869	1
6869	6879	1
6868	6875	1
6879	6881	1
6873	6874	1
6878	6880	1
1373	1374	1
1373	1376	1
1373	1379	1
1374	1375	1
1374	1381	1
1375	1378	1
1375	1385	1
1377	1378	1
1378	1383	1
1376	1377	1
1377	1384	1
1376	1382	1
1384	1386	1
1379	1380	1
1385	1387	1
1385	1388	1
1388	1389	1
1404	1407	1
1404	1405	1
1404	1410	1
1407	1408	1
1407	1413	1
1408	1409	1
1408	1415	1
1406	1409	1
1409	1414	1
1405	1406	1
1406	1416	1
1405	1412	1
1416	1418	1
1416	1419	1
1410	1411	1
1415	1417	1
1419	1420	1
6896	6897	1
6896	6899	1
6896	6902	1
6897	6898	1
6897	6904	1
6898	6901	1
6898	6908	1
6900	6901	1
6901	6906	1
6899	6900	1
6900	6907	1
6899	6905	1
6907	6909	1
6902	6903	1
6908	6910	1
6911	6912	1
6911	6914	1
6911	6917	1
6912	6913	1
6912	6919	1
6913	6916	1
6913	6923	1
6915	6916	1
6916	6921	1
6914	6915	1
6915	6922	1
6914	6920	1
6922	6924	1
6917	6918	1
6923	6925	1
6940	6941	1
6940	6943	1
6940	6946	1
6941	6942	1
6941	6948	1
6942	6945	1
6942	6952	1
6944	6945	1
6945	6950	1
6943	6944	1
6944	6951	1
6943	6949	1
6951	6953	1
6946	6947	1
6952	6954	1
6973	6972	1
6973	6974	1
6973	6980	1
6972	6969	1
6972	6978	1
6969	6970	1
6969	6975	1
6971	6970	1
6970	6977	1
6974	6971	1
6971	6981	1
6974	6979	1
6981	6983	1
6980	6982	1
6975	6976	1
1451	1456	1
1451	1452	1
1451	1449	1
1456	1455	1
1456	1464	1
1455	1454	1
1455	1457	1
1453	1454	1
1454	1463	1
1452	1453	1
1453	1459	1
1452	1462	1
1459	1460	1
1459	1461	1
1449	1450	1
1457	1458	1
6984	6987	1
6984	6985	1
6984	6990	1
6987	6988	1
6987	6993	1
6988	6989	1
6988	6995	1
6986	6989	1
6989	6994	1
6985	6986	1
6986	6996	1
6985	6992	1
6996	6998	1
6990	6991	1
6995	6997	1
1466	1467	1
1467	1470	1
1467	1477	1
1465	1466	1
1466	1473	1
1465	1468	1
1465	1471	1
1468	1469	1
1468	1474	1
1469	1470	1
1469	1476	1
1470	1475	1
1476	1478	1
1477	1479	1
1477	1480	1
1471	1472	1
1480	1481	1
7013	7016	1
7013	7014	1
7013	7019	1
7016	7017	1
7016	7022	1
7017	7018	1
7017	7024	1
7015	7018	1
7018	7023	1
7014	7015	1
7015	7025	1
7014	7021	1
7025	7027	1
7019	7020	1
7024	7026	1
7029	7030	1
7030	7033	1
7030	7040	1
7028	7029	1
7029	7036	1
7028	7031	1
7028	7034	1
7031	7032	1
7031	7037	1
7032	7033	1
7032	7039	1
7033	7038	1
7039	7041	1
7040	7042	1
7034	7035	1
7057	7058	1
7057	7060	1
7057	7063	1
7058	7059	1
7058	7065	1
7059	7062	1
7059	7069	1
7061	7062	1
7062	7067	1
7060	7061	1
7061	7068	1
7060	7066	1
7068	7070	1
7063	7064	1
7069	7071	1
7086	7087	1
7086	7089	1
7086	7092	1
7087	7088	1
7087	7094	1
7088	7091	1
7088	7098	1
7090	7091	1
7091	7096	1
7089	7090	1
7090	7097	1
7089	7095	1
7097	7099	1
7092	7093	1
7098	7100	1
7115	7118	1
7115	7116	1
7115	7121	1
7118	7119	1
7118	7124	1
7119	7120	1
7119	7126	1
7117	7120	1
7120	7125	1
7116	7117	1
7117	7127	1
7116	7123	1
7127	7129	1
7121	7122	1
7126	7128	1
7144	7147	1
7144	7145	1
7144	7150	1
7147	7148	1
7147	7153	1
7148	7149	1
7148	7155	1
7146	7149	1
7149	7154	1
7145	7146	1
7146	7156	1
7145	7152	1
7156	7158	1
7150	7151	1
7155	7157	1
1512	1513	1
1512	1517	1
1512	1510	1
1513	1514	1
1513	1523	1
1514	1515	1
1514	1520	1
1516	1515	1
1515	1524	1
1517	1516	1
1516	1518	1
1517	1525	1
1518	1519	1
1510	1511	1
1520	1521	1
1520	1522	1
7177	7178	1
7177	7176	1
7177	7184	1
7178	7175	1
7178	7183	1
7175	7174	1
7175	7185	1
7173	7174	1
7174	7181	1
7176	7173	1
7173	7179	1
7176	7182	1
7179	7180	1
7184	7186	1
7185	7187	1
7205	7206	1
7206	7207	1
7206	7213	1
7202	7205	1
7205	7211	1
7202	7203	1
7202	7208	1
7203	7204	1
7203	7210	1
7204	7207	1
7204	7214	1
7207	7212	1
7214	7216	1
7213	7215	1
7208	7209	1
72	73	1
72	71	1
72	74	1
73	68	1
73	82	1
68	69	1
68	66	1
70	69	1
69	80	1
71	70	1
70	76	1
71	81	1
76	77	1
76	78	1
74	75	1
66	67	1
66	65	1
65	79	1
7217	7218	1
7217	7220	1
7217	7223	1
7218	7219	1
7218	7225	1
7219	7222	1
7219	7229	1
7221	7222	1
7222	7227	1
7220	7221	1
7221	7228	1
7220	7226	1
7228	7230	1
7223	7224	1
7229	7231	1
7246	7247	1
7246	7249	1
7246	7252	1
7247	7248	1
7247	7254	1
7248	7251	1
7248	7258	1
7250	7251	1
7251	7256	1
7249	7250	1
7250	7257	1
7249	7255	1
7257	7259	1
7252	7253	1
7258	7260	1
7275	7278	1
7275	7276	1
7275	7281	1
7278	7279	1
7278	7284	1
7279	7280	1
7279	7286	1
7277	7280	1
7280	7285	1
7276	7277	1
7277	7287	1
7276	7283	1
7287	7289	1
7281	7282	1
7286	7288	1
7304	7307	1
7304	7305	1
7304	7310	1
7307	7308	1
7307	7313	1
7308	7309	1
7308	7315	1
7306	7309	1
7309	7314	1
7305	7306	1
7306	7316	1
7305	7312	1
7316	7318	1
7310	7311	1
7315	7317	1
7333	7334	1
7333	7336	1
7333	7339	1
7334	7335	1
7334	7341	1
7335	7338	1
7335	7345	1
7337	7338	1
7338	7343	1
7336	7337	1
7337	7344	1
7336	7342	1
7344	7346	1
7339	7340	1
7345	7347	1
1527	1528	1
1528	1531	1
1528	1538	1
1526	1527	1
1527	1534	1
1526	1529	1
1526	1532	1
1529	1530	1
1529	1535	1
1530	1531	1
1530	1537	1
1531	1536	1
1537	1539	1
1538	1540	1
1538	1541	1
1532	1533	1
1541	1542	1
1577	1578	1
1577	1576	1
1577	1579	1
1578	1573	1
1578	1586	1
1573	1574	1
1573	1571	1
1575	1574	1
1574	1584	1
1576	1575	1
1575	1581	1
1576	1585	1
1581	1582	1
1581	1583	1
1579	1580	1
1571	1572	1
7362	7363	1
7362	7365	1
7362	7368	1
7363	7364	1
7363	7370	1
7364	7367	1
7364	7374	1
7366	7367	1
7367	7372	1
7365	7366	1
7366	7373	1
7365	7371	1
7373	7375	1
7368	7369	1
7374	7376	1
1587	1588	1
1587	1590	1
1587	1593	1
1588	1589	1
1588	1595	1
1589	1592	1
1589	1599	1
1591	1592	1
1592	1597	1
1590	1591	1
1591	1598	1
1590	1596	1
1598	1600	1
1593	1594	1
1599	1601	1
1599	1602	1
1602	1603	1
1635	1636	1
1636	1637	1
1636	1642	1
1634	1635	1
1635	1645	1
1634	1639	1
1634	1632	1
1639	1638	1
1639	1647	1
1638	1637	1
1638	1640	1
1637	1646	1
1640	1641	1
1642	1643	1
1642	1644	1
1632	1633	1
7377	7380	1
7377	7378	1
7377	7383	1
7380	7381	1
7380	7386	1
7381	7382	1
7381	7388	1
7379	7382	1
7382	7387	1
7378	7379	1
7379	7389	1
7378	7385	1
7389	7391	1
7383	7384	1
7388	7390	1
103	102	1
102	101	1
102	108	1
104	103	1
103	113	1
104	105	1
104	106	1
105	100	1
105	114	1
100	101	1
100	98	1
101	112	1
98	99	1
98	97	1
108	109	1
108	110	1
106	107	1
97	111	1
7392	7395	1
7392	7393	1
7392	7398	1
7395	7396	1
7395	7401	1
7396	7397	1
7396	7403	1
7394	7397	1
7397	7402	1
7393	7394	1
7394	7404	1
7393	7400	1
7404	7406	1
7398	7399	1
7403	7405	1
7421	7424	1
7421	7422	1
7421	7427	1
7424	7425	1
7424	7430	1
7425	7426	1
7425	7432	1
7423	7426	1
7426	7431	1
7422	7423	1
7423	7433	1
7422	7429	1
7433	7435	1
7427	7428	1
7432	7434	1
7450	7453	1
7450	7451	1
7450	7456	1
7453	7454	1
7453	7459	1
7454	7455	1
7454	7461	1
7452	7455	1
7455	7460	1
7451	7452	1
7452	7462	1
7451	7458	1
7462	7464	1
7456	7457	1
7461	7463	1
7479	7482	1
7479	7480	1
7479	7485	1
7482	7483	1
7482	7488	1
7483	7484	1
7483	7490	1
7481	7484	1
7484	7489	1
7480	7481	1
7481	7491	1
7480	7487	1
7491	7493	1
7485	7486	1
7490	7492	1
7494	7495	1
7494	7497	1
7494	7500	1
7495	7496	1
7495	7502	1
7496	7499	1
7496	7506	1
7498	7499	1
7499	7504	1
7497	7498	1
7498	7505	1
7497	7503	1
7505	7507	1
7500	7501	1
7506	7508	1
7523	7526	1
7523	7524	1
7523	7529	1
7526	7527	1
7526	7532	1
7527	7528	1
7527	7534	1
7525	7528	1
7528	7533	1
7524	7525	1
7525	7535	1
7524	7531	1
7535	7537	1
7529	7530	1
7534	7536	1
1648	1651	1
1648	1649	1
1648	1654	1
1651	1652	1
1651	1657	1
1652	1653	1
1652	1659	1
1650	1653	1
1653	1658	1
1649	1650	1
1650	1660	1
1649	1656	1
1660	1662	1
1660	1663	1
1654	1655	1
1659	1661	1
1663	1664	1
7552	7555	1
7552	7553	1
7552	7558	1
7555	7556	1
7555	7561	1
7556	7557	1
7556	7563	1
7554	7557	1
7557	7562	1
7553	7554	1
7554	7564	1
7553	7560	1
7564	7566	1
7558	7559	1
7563	7565	1
7567	7568	1
7567	7570	1
7567	7573	1
7568	7569	1
7568	7575	1
7569	7572	1
7569	7579	1
7571	7572	1
7572	7577	1
7570	7571	1
7571	7578	1
7570	7576	1
7578	7580	1
7573	7574	1
7579	7581	1
7600	7601	1
7600	7599	1
7600	7607	1
7601	7598	1
7601	7606	1
7598	7597	1
7598	7608	1
7596	7597	1
7597	7604	1
7599	7596	1
7596	7602	1
7599	7605	1
7602	7603	1
7607	7609	1
7608	7610	1
7625	7628	1
7625	7626	1
7625	7631	1
7628	7629	1
7628	7634	1
7629	7630	1
7629	7636	1
7627	7630	1
7630	7635	1
7626	7627	1
7627	7637	1
7626	7633	1
7637	7639	1
7631	7632	1
7636	7638	1
1679	1682	1
1679	1680	1
1679	1685	1
1682	1683	1
1682	1688	1
1683	1684	1
1683	1690	1
1681	1684	1
1684	1689	1
1680	1681	1
1681	1691	1
1680	1687	1
1691	1693	1
1691	1694	1
1685	1686	1
1690	1692	1
1694	1695	1
7640	7643	1
7640	7641	1
7640	7646	1
7643	7644	1
7643	7649	1
7644	7645	1
7644	7651	1
7642	7645	1
7645	7650	1
7641	7642	1
7642	7652	1
7641	7648	1
7652	7654	1
7646	7647	1
7651	7653	1
7669	7672	1
7669	7670	1
7669	7675	1
7672	7673	1
7672	7678	1
7673	7674	1
7673	7680	1
7671	7674	1
7674	7679	1
7670	7671	1
7671	7681	1
7670	7677	1
7681	7683	1
7675	7676	1
7680	7682	1
7698	7701	1
7698	7699	1
7698	7704	1
7701	7702	1
7701	7707	1
7702	7703	1
7702	7709	1
7700	7703	1
7703	7708	1
7699	7700	1
7700	7710	1
7699	7706	1
7710	7712	1
7704	7705	1
7709	7711	1
1710	1711	1
1710	1713	1
1710	1716	1
1711	1712	1
1711	1718	1
1712	1715	1
1712	1722	1
1714	1715	1
1715	1720	1
1713	1714	1
1714	1721	1
1713	1719	1
1721	1723	1
1716	1717	1
1722	1724	1
1722	1725	1
1725	1726	1
7731	7732	1
7730	7731	1
7731	7738	1
7729	7732	1
7732	7737	1
7728	7729	1
7729	7739	1
7727	7728	1
7728	7735	1
7727	7730	1
7727	7733	1
7730	7736	1
7733	7734	1
7738	7740	1
7739	7741	1
7756	7757	1
7756	7759	1
7756	7762	1
7757	7758	1
7757	7764	1
7758	7761	1
7758	7768	1
7760	7761	1
7761	7766	1
7759	7760	1
7760	7767	1
7759	7765	1
7767	7769	1
7762	7763	1
7768	7770	1
7785	7786	1
7785	7788	1
7785	7791	1
7786	7787	1
7786	7793	1
7787	7790	1
7787	7797	1
7789	7790	1
7790	7795	1
7788	7789	1
7789	7796	1
7788	7794	1
7796	7798	1
7791	7792	1
7797	7799	1
1741	1742	1
1741	1744	1
1741	1747	1
1742	1743	1
1742	1749	1
1743	1746	1
1743	1753	1
1745	1746	1
1746	1751	1
1744	1745	1
1745	1752	1
1744	1750	1
1752	1754	1
1747	1748	1
1753	1755	1
1753	1756	1
1756	1757	1
7814	7815	1
7814	7817	1
7814	7820	1
7815	7816	1
7815	7822	1
7816	7819	1
7816	7826	1
7818	7819	1
7819	7824	1
7817	7818	1
7818	7825	1
7817	7823	1
7825	7827	1
7820	7821	1
7826	7828	1
7843	7844	1
7843	7846	1
7843	7849	1
7844	7845	1
7844	7851	1
7845	7848	1
7845	7855	1
7847	7848	1
7848	7853	1
7846	7847	1
7847	7854	1
7846	7852	1
7854	7856	1
7849	7850	1
7855	7857	1
7872	7873	1
7872	7875	1
7872	7878	1
7873	7874	1
7873	7880	1
7874	7877	1
7874	7884	1
7876	7877	1
7877	7882	1
7875	7876	1
7876	7883	1
7875	7881	1
7883	7885	1
7878	7879	1
7884	7886	1
7901	7902	1
7901	7904	1
7901	7907	1
7902	7903	1
7902	7909	1
7903	7906	1
7903	7913	1
7905	7906	1
7906	7911	1
7904	7905	1
7905	7912	1
7904	7910	1
7912	7914	1
7907	7908	1
7913	7915	1
7930	7933	1
7930	7931	1
7930	7936	1
7933	7934	1
7933	7939	1
7934	7935	1
7934	7941	1
7932	7935	1
7935	7940	1
7931	7932	1
7932	7942	1
7931	7938	1
7942	7944	1
7936	7937	1
7941	7943	1
1772	1773	1
1772	1775	1
1772	1778	1
1773	1774	1
1773	1780	1
1774	1777	1
1774	1784	1
1776	1777	1
1777	1782	1
1775	1776	1
1776	1783	1
1775	1781	1
1783	1785	1
1778	1779	1
1784	1786	1
1784	1787	1
1787	1788	1
7945	7946	1
7945	7948	1
7945	7951	1
7946	7947	1
7946	7953	1
7947	7950	1
7947	7957	1
7949	7950	1
7950	7955	1
7948	7949	1
7949	7956	1
7948	7954	1
7956	7958	1
7951	7952	1
7957	7959	1
7974	7975	1
7974	7977	1
7974	7980	1
7975	7976	1
7975	7982	1
7976	7979	1
7976	7986	1
7978	7979	1
7979	7984	1
7977	7978	1
7978	7985	1
7977	7983	1
7985	7987	1
7980	7981	1
7986	7988	1
8003	8006	1
8003	8004	1
8003	8009	1
8006	8007	1
8006	8012	1
8007	8008	1
8007	8014	1
8005	8008	1
8008	8013	1
8004	8005	1
8005	8015	1
8004	8011	1
8015	8017	1
8009	8010	1
8014	8016	1
8018	8021	1
8018	8019	1
8018	8024	1
8021	8022	1
8021	8027	1
8022	8023	1
8022	8029	1
8020	8023	1
8023	8028	1
8019	8020	1
8020	8030	1
8019	8026	1
8030	8032	1
8024	8025	1
8029	8031	1
8047	8048	1
8047	8050	1
8047	8053	1
8048	8049	1
8048	8055	1
8049	8052	1
8049	8059	1
8051	8052	1
8052	8057	1
8050	8051	1
8051	8058	1
8050	8056	1
8058	8060	1
8053	8054	1
8059	8061	1
8076	8077	1
8076	8079	1
8076	8082	1
8077	8078	1
8077	8084	1
8078	8081	1
8078	8088	1
8080	8081	1
8081	8086	1
8079	8080	1
8080	8087	1
8079	8085	1
8087	8089	1
8082	8083	1
8088	8090	1
1807	1806	1
1807	1808	1
1807	1814	1
1806	1803	1
1806	1812	1
1803	1804	1
1803	1809	1
1805	1804	1
1804	1811	1
1808	1805	1
1805	1815	1
1808	1813	1
1815	1817	1
1815	1818	1
1814	1816	1
1809	1810	1
1818	1819	1
8091	8092	1
8091	8094	1
8091	8097	1
8092	8093	1
8092	8099	1
8093	8096	1
8093	8103	1
8095	8096	1
8096	8101	1
8094	8095	1
8095	8102	1
8094	8100	1
8102	8104	1
8097	8098	1
8103	8105	1
8120	8121	1
8120	8123	1
8120	8126	1
8121	8122	1
8121	8128	1
8122	8125	1
8122	8132	1
8124	8125	1
8125	8130	1
8123	8124	1
8124	8131	1
8123	8129	1
8131	8133	1
8126	8127	1
8132	8134	1
8149	8152	1
8149	8150	1
8149	8155	1
8152	8153	1
8152	8158	1
8153	8154	1
8153	8160	1
8151	8154	1
8154	8159	1
8150	8151	1
8151	8161	1
8150	8157	1
8161	8163	1
8155	8156	1
8160	8162	1
8178	8181	1
8178	8179	1
8178	8184	1
8181	8182	1
8181	8187	1
8182	8183	1
8182	8189	1
8180	8183	1
8183	8188	1
8179	8180	1
8180	8190	1
8179	8186	1
8190	8192	1
8184	8185	1
8189	8191	1
8193	8196	1
8193	8194	1
8193	8199	1
8196	8197	1
8196	8202	1
8197	8198	1
8197	8204	1
8195	8198	1
8198	8203	1
8194	8195	1
8195	8205	1
8194	8201	1
8205	8207	1
8199	8200	1
8204	8206	1
8208	8209	1
8208	8211	1
8208	8214	1
8209	8210	1
8209	8216	1
8210	8213	1
8210	8220	1
8212	8213	1
8213	8218	1
8211	8212	1
8212	8219	1
8211	8217	1
8219	8221	1
8214	8215	1
8220	8222	1
8238	8239	1
8239	8242	1
8239	8249	1
8237	8238	1
8238	8245	1
8237	8240	1
8237	8243	1
8240	8241	1
8240	8246	1
8241	8242	1
8241	8248	1
8242	8247	1
8248	8250	1
8249	8251	1
8243	8244	1
1850	1851	1
1850	1855	1
1850	1848	1
1851	1852	1
1851	1861	1
1852	1853	1
1852	1858	1
1854	1853	1
1853	1862	1
1855	1854	1
1854	1856	1
1855	1863	1
1856	1857	1
1848	1849	1
1858	1859	1
1858	1860	1
1864	1865	1
1864	1867	1
1864	1870	1
1865	1866	1
1865	1872	1
1866	1869	1
1866	1876	1
1868	1869	1
1869	1874	1
1867	1868	1
1868	1875	1
1867	1873	1
1875	1877	1
1870	1871	1
1876	1878	1
1876	1879	1
1879	1880	1
8252	8253	1
8252	8255	1
8252	8258	1
8253	8254	1
8253	8260	1
8254	8257	1
8254	8264	1
8256	8257	1
8257	8262	1
8255	8256	1
8256	8263	1
8255	8261	1
8263	8265	1
8258	8259	1
8264	8266	1
1896	1897	1
1897	1900	1
1897	1907	1
1895	1896	1
1896	1903	1
1895	1898	1
1895	1901	1
1898	1899	1
1898	1904	1
1899	1900	1
1899	1906	1
1900	1905	1
1906	1908	1
1907	1909	1
1907	1910	1
1901	1902	1
1910	1911	1
1926	1929	1
1926	1927	1
1926	1932	1
1929	1930	1
1929	1935	1
1930	1931	1
1930	1937	1
1928	1931	1
1931	1936	1
1927	1928	1
1928	1938	1
1927	1934	1
1938	1940	1
1938	1941	1
1932	1933	1
1937	1939	1
1941	1942	1
135	134	1
134	133	1
134	140	1
136	135	1
135	145	1
136	137	1
136	138	1
137	132	1
137	146	1
132	133	1
132	130	1
133	144	1
130	131	1
130	129	1
140	141	1
140	142	1
138	139	1
129	143	1
167	166	1
166	165	1
166	172	1
168	167	1
167	177	1
168	169	1
168	170	1
169	164	1
169	178	1
164	165	1
164	162	1
165	176	1
162	163	1
162	161	1
172	173	1
172	174	1
170	171	1
161	175	1
1958	1959	1
1958	1961	1
1958	1964	1
1959	1960	1
1959	1966	1
1960	1963	1
1960	1970	1
1962	1963	1
1963	1968	1
1961	1962	1
1962	1969	1
1961	1967	1
1969	1971	1
1964	1965	1
1970	1972	1
1970	1973	1
1973	1974	1
1990	1991	1
1991	1994	1
1991	2001	1
1989	1990	1
1990	1997	1
1989	1992	1
1989	1995	1
1992	1993	1
1992	1998	1
1993	1994	1
1993	2000	1
1994	1999	1
2000	2002	1
2001	2003	1
2001	2004	1
1995	1996	1
2004	2005	1
8267	8268	1
8267	8270	1
8267	8273	1
8268	8269	1
8268	8275	1
8269	8272	1
8269	8279	1
8271	8272	1
8272	8277	1
8270	8271	1
8271	8278	1
8270	8276	1
8278	8280	1
8273	8274	1
8279	8281	1
8296	8297	1
8296	8299	1
8296	8302	1
8297	8298	1
8297	8304	1
8298	8301	1
8298	8308	1
8300	8301	1
8301	8306	1
8299	8300	1
8300	8307	1
8299	8305	1
8307	8309	1
8302	8303	1
8308	8310	1
8311	8312	1
8311	8314	1
8311	8317	1
8312	8313	1
8312	8319	1
8313	8316	1
8313	8323	1
8315	8316	1
8316	8321	1
8314	8315	1
8315	8322	1
8314	8320	1
8322	8324	1
8317	8318	1
8323	8325	1
8340	8341	1
8340	8343	1
8340	8346	1
8341	8342	1
8341	8348	1
8342	8345	1
8342	8352	1
8344	8345	1
8345	8350	1
8343	8344	1
8344	8351	1
8343	8349	1
8351	8353	1
8346	8347	1
8352	8354	1
8355	8358	1
8355	8356	1
8355	8361	1
8358	8359	1
8358	8364	1
8359	8360	1
8359	8366	1
8357	8360	1
8360	8365	1
8356	8357	1
8357	8367	1
8356	8363	1
8367	8369	1
8361	8362	1
8366	8368	1
8370	8373	1
8370	8371	1
8370	8376	1
8373	8374	1
8373	8379	1
8374	8375	1
8374	8381	1
8372	8375	1
8375	8380	1
8371	8372	1
8372	8382	1
8371	8378	1
8382	8384	1
8376	8377	1
8381	8383	1
8399	8400	1
8399	8402	1
8399	8405	1
8400	8401	1
8400	8407	1
8401	8404	1
8401	8411	1
8403	8404	1
8404	8409	1
8402	8403	1
8403	8410	1
8402	8408	1
8410	8412	1
8405	8406	1
8411	8413	1
8414	8415	1
8414	8417	1
8414	8420	1
8415	8416	1
8415	8422	1
8416	8419	1
8416	8426	1
8418	8419	1
8419	8424	1
8417	8418	1
8418	8425	1
8417	8423	1
8425	8427	1
8420	8421	1
8426	8428	1
2021	2022	1
2022	2025	1
2022	2032	1
2020	2021	1
2021	2028	1
2020	2023	1
2020	2026	1
2023	2024	1
2023	2029	1
2024	2025	1
2024	2031	1
2025	2030	1
2031	2033	1
2032	2034	1
2032	2035	1
2026	2027	1
2035	2036	1
8443	8444	1
8443	8446	1
8443	8449	1
8444	8445	1
8444	8451	1
8445	8448	1
8445	8455	1
8447	8448	1
8448	8453	1
8446	8447	1
8447	8454	1
8446	8452	1
8454	8456	1
8449	8450	1
8455	8457	1
2068	2069	1
2069	2070	1
2069	2075	1
2067	2068	1
2068	2078	1
2067	2072	1
2067	2065	1
2072	2071	1
2072	2080	1
2071	2070	1
2071	2073	1
2070	2079	1
2073	2074	1
2075	2076	1
2075	2077	1
2065	2066	1
2082	2083	1
2083	2086	1
2083	2093	1
2081	2082	1
2082	2089	1
2081	2084	1
2081	2087	1
2084	2085	1
2084	2090	1
2085	2086	1
2085	2092	1
2086	2091	1
2092	2094	1
2093	2095	1
2093	2096	1
2087	2088	1
2096	2097	1
196	197	1
201	196	1
196	194	1
198	197	1
197	208	1
199	198	1
198	204	1
200	199	1
199	209	1
200	201	1
200	202	1
201	210	1
202	203	1
194	195	1
194	193	1
204	205	1
204	206	1
193	207	1
8472	8475	1
8472	8473	1
8472	8478	1
8475	8476	1
8475	8481	1
8476	8477	1
8476	8483	1
8474	8477	1
8477	8482	1
8473	8474	1
8474	8484	1
8473	8480	1
8484	8486	1
8478	8479	1
8483	8485	1
8487	8488	1
8487	8490	1
8487	8493	1
8488	8489	1
8488	8495	1
8489	8492	1
8489	8499	1
8491	8492	1
8492	8497	1
8490	8491	1
8491	8498	1
8490	8496	1
8498	8500	1
8493	8494	1
8499	8501	1
8516	8517	1
8516	8519	1
8516	8522	1
8517	8518	1
8517	8524	1
8518	8521	1
8518	8528	1
8520	8521	1
8521	8526	1
8519	8520	1
8520	8527	1
8519	8525	1
8527	8529	1
8522	8523	1
8528	8530	1
8545	8546	1
8545	8548	1
8545	8551	1
8546	8547	1
8546	8553	1
8547	8550	1
8547	8557	1
8549	8550	1
8550	8555	1
8548	8549	1
8549	8556	1
8548	8554	1
8556	8558	1
8551	8552	1
8557	8559	1
2112	2113	1
2112	2115	1
2112	2118	1
2113	2114	1
2113	2120	1
2114	2117	1
2114	2124	1
2116	2117	1
2117	2122	1
2115	2116	1
2116	2123	1
2115	2121	1
2123	2125	1
2118	2119	1
2124	2126	1
2124	2127	1
2127	2128	1
8561	8562	1
8562	8565	1
8562	8572	1
8560	8561	1
8561	8568	1
8560	8563	1
8560	8566	1
8563	8564	1
8563	8569	1
8564	8565	1
8564	8571	1
8565	8570	1
8571	8573	1
8572	8574	1
8566	8567	1
8589	8590	1
8589	8592	1
8589	8595	1
8590	8591	1
8590	8597	1
8591	8594	1
8591	8601	1
8593	8594	1
8594	8599	1
8592	8593	1
8593	8600	1
8592	8598	1
8600	8602	1
8595	8596	1
8601	8603	1
8618	8621	1
8618	8619	1
8618	8624	1
8621	8622	1
8621	8627	1
8622	8623	1
8622	8629	1
8620	8623	1
8623	8628	1
8619	8620	1
8620	8630	1
8619	8626	1
8630	8632	1
8624	8625	1
8629	8631	1
8633	8634	1
8633	8636	1
8633	8639	1
8634	8635	1
8634	8641	1
8635	8638	1
8635	8645	1
8637	8638	1
8638	8643	1
8636	8637	1
8637	8644	1
8636	8642	1
8644	8646	1
8639	8640	1
8645	8647	1
8662	8663	1
8662	8665	1
8662	8668	1
8663	8664	1
8663	8670	1
8664	8667	1
8664	8674	1
8666	8667	1
8667	8672	1
8665	8666	1
8666	8673	1
8665	8671	1
8673	8675	1
8668	8669	1
8674	8676	1
8691	8694	1
8691	8692	1
8691	8697	1
8694	8695	1
8694	8700	1
8695	8696	1
8695	8702	1
8693	8696	1
8696	8701	1
8692	8693	1
8693	8703	1
8692	8699	1
8703	8705	1
8697	8698	1
8702	8704	1
8720	8723	1
8720	8721	1
8720	8726	1
8723	8724	1
8723	8729	1
8724	8725	1
8724	8731	1
8722	8725	1
8725	8730	1
8721	8722	1
8722	8732	1
8721	8728	1
8732	8734	1
8726	8727	1
8731	8733	1
8735	8738	1
8735	8736	1
8735	8741	1
8738	8739	1
8738	8744	1
8739	8740	1
8739	8746	1
8737	8740	1
8740	8745	1
8736	8737	1
8737	8747	1
8736	8743	1
8747	8749	1
8741	8742	1
8746	8748	1
8750	8753	1
8750	8751	1
8750	8756	1
8753	8754	1
8753	8759	1
8754	8755	1
8754	8761	1
8752	8755	1
8755	8760	1
8751	8752	1
8752	8762	1
8751	8758	1
8762	8764	1
8756	8757	1
8761	8763	1
8765	8768	1
8765	8766	1
8765	8771	1
8768	8769	1
8768	8774	1
8769	8770	1
8769	8776	1
8767	8770	1
8770	8775	1
8766	8767	1
8767	8777	1
8766	8773	1
8777	8779	1
8771	8772	1
8776	8778	1
8794	8795	1
8794	8797	1
8794	8800	1
8795	8796	1
8795	8802	1
8796	8799	1
8796	8806	1
8798	8799	1
8799	8804	1
8797	8798	1
8798	8805	1
8797	8803	1
8805	8807	1
8800	8801	1
8806	8808	1
8823	8824	1
8823	8826	1
8823	8829	1
8824	8825	1
8824	8831	1
8825	8828	1
8825	8835	1
8827	8828	1
8828	8833	1
8826	8827	1
8827	8834	1
8826	8832	1
8834	8836	1
8829	8830	1
8835	8837	1
8854	8853	1
8854	8857	1
8854	8864	1
8853	8852	1
8853	8860	1
8852	8855	1
8852	8858	1
8856	8855	1
8855	8861	1
8857	8856	1
8856	8863	1
8857	8862	1
8863	8865	1
8864	8866	1
8858	8859	1
8881	8884	1
8881	8882	1
8881	8887	1
8884	8885	1
8884	8890	1
8885	8886	1
8885	8892	1
8883	8886	1
8886	8891	1
8882	8883	1
8883	8893	1
8882	8889	1
8893	8895	1
8887	8888	1
8892	8894	1
8896	8897	1
8896	8899	1
8896	8902	1
8897	8898	1
8897	8904	1
8898	8901	1
8898	8908	1
8900	8901	1
8901	8906	1
8899	8900	1
8900	8907	1
8899	8905	1
8907	8909	1
8902	8903	1
8908	8910	1
8925	8928	1
8925	8926	1
8925	8931	1
8928	8929	1
8928	8934	1
8929	8930	1
8929	8936	1
8927	8930	1
8930	8935	1
8926	8927	1
8927	8937	1
8926	8933	1
8937	8939	1
8931	8932	1
8936	8938	1
8954	8957	1
8954	8955	1
8954	8960	1
8957	8958	1
8957	8963	1
8958	8959	1
8958	8965	1
8956	8959	1
8959	8964	1
8955	8956	1
8956	8966	1
8955	8962	1
8966	8968	1
8960	8961	1
8965	8967	1
8969	8972	1
8969	8970	1
8969	8975	1
8972	8973	1
8972	8978	1
8973	8974	1
8973	8980	1
8971	8974	1
8974	8979	1
8970	8971	1
8971	8981	1
8970	8977	1
8981	8983	1
8975	8976	1
8980	8982	1
8998	8999	1
8998	9001	1
8998	9004	1
8999	9000	1
8999	9006	1
9000	9003	1
9000	9010	1
9002	9003	1
9003	9008	1
9001	9002	1
9002	9009	1
9001	9007	1
9009	9011	1
9004	9005	1
9010	9012	1
9013	9014	1
9013	9016	1
9013	9019	1
9014	9015	1
9014	9021	1
9015	9018	1
9015	9025	1
9017	9018	1
9018	9023	1
9016	9017	1
9017	9024	1
9016	9022	1
9024	9026	1
9019	9020	1
9025	9027	1
9042	9043	1
9042	9045	1
9042	9048	1
9043	9044	1
9043	9050	1
9044	9047	1
9044	9054	1
9046	9047	1
9047	9052	1
9045	9046	1
9046	9053	1
9045	9051	1
9053	9055	1
9048	9049	1
9054	9056	1
9057	9060	1
9057	9058	1
9057	9063	1
9060	9061	1
9060	9066	1
9061	9062	1
9061	9068	1
9059	9062	1
9062	9067	1
9058	9059	1
9059	9069	1
9058	9065	1
9069	9071	1
9063	9064	1
9068	9070	1
9072	9073	1
9072	9075	1
9072	9078	1
9073	9074	1
9073	9080	1
9074	9077	1
9074	9084	1
9076	9077	1
9077	9082	1
9075	9076	1
9076	9083	1
9075	9081	1
9083	9085	1
9078	9079	1
9084	9086	1
2143	2144	1
2143	2146	1
2143	2149	1
2144	2145	1
2144	2151	1
2145	2148	1
2145	2155	1
2147	2148	1
2148	2153	1
2146	2147	1
2147	2154	1
2146	2152	1
2154	2156	1
2149	2150	1
2155	2157	1
2155	2158	1
2158	2159	1
2174	2177	1
2174	2175	1
2174	2180	1
2177	2178	1
2177	2183	1
2178	2179	1
2178	2185	1
2176	2179	1
2179	2184	1
2175	2176	1
2176	2186	1
2175	2182	1
2186	2188	1
2186	2189	1
2180	2181	1
2185	2187	1
2189	2190	1
9101	9102	1
9101	9104	1
9101	9107	1
9102	9103	1
9102	9109	1
9103	9106	1
9103	9113	1
9105	9106	1
9106	9111	1
9104	9105	1
9105	9112	1
9104	9110	1
9112	9114	1
9107	9108	1
9113	9115	1
9133	9134	1
9134	9135	1
9134	9141	1
9130	9133	1
9133	9139	1
9130	9131	1
9130	9136	1
9131	9132	1
9131	9138	1
9132	9135	1
9132	9142	1
9135	9140	1
9142	9144	1
9141	9143	1
9136	9137	1
9159	9162	1
9159	9160	1
9159	9165	1
9162	9163	1
9162	9168	1
9163	9164	1
9163	9170	1
9161	9164	1
9164	9169	1
9160	9161	1
9161	9171	1
9160	9167	1
9171	9173	1
9165	9166	1
9170	9172	1
2191	2192	1
2191	2194	1
2191	2197	1
2192	2193	1
2192	2199	1
2193	2196	1
2193	2203	1
2195	2196	1
2196	2201	1
2194	2195	1
2195	2202	1
2194	2200	1
2202	2204	1
2197	2198	1
2203	2205	1
2203	2206	1
2206	2207	1
9188	9191	1
9188	9189	1
9188	9194	1
9191	9192	1
9191	9197	1
9192	9193	1
9192	9199	1
9190	9193	1
9193	9198	1
9189	9190	1
9190	9200	1
9189	9196	1
9200	9202	1
9194	9195	1
9199	9201	1
9217	9220	1
9217	9218	1
9217	9223	1
9220	9221	1
9220	9226	1
9221	9222	1
9221	9228	1
9219	9222	1
9222	9227	1
9218	9219	1
9219	9229	1
9218	9225	1
9229	9231	1
9223	9224	1
9228	9230	1
9246	9249	1
9246	9247	1
9246	9252	1
9249	9250	1
9249	9255	1
9250	9251	1
9250	9257	1
9248	9251	1
9251	9256	1
9247	9248	1
9248	9258	1
9247	9254	1
9258	9260	1
9252	9253	1
9257	9259	1
9279	9278	1
9279	9280	1
9279	9286	1
9278	9275	1
9278	9284	1
9275	9276	1
9275	9281	1
9277	9276	1
9276	9283	1
9280	9277	1
9277	9287	1
9280	9285	1
9287	9289	1
9286	9288	1
9281	9282	1
9304	9307	1
9304	9305	1
9304	9310	1
9307	9308	1
9307	9313	1
9308	9309	1
9308	9315	1
9306	9309	1
9309	9314	1
9305	9306	1
9306	9316	1
9305	9312	1
9316	9318	1
9310	9311	1
9315	9317	1
9333	9334	1
9333	9336	1
9333	9339	1
9334	9335	1
9334	9341	1
9335	9338	1
9335	9345	1
9337	9338	1
9338	9343	1
9336	9337	1
9337	9344	1
9336	9342	1
9344	9346	1
9339	9340	1
9345	9347	1
9362	9363	1
9362	9365	1
9362	9368	1
9363	9364	1
9363	9370	1
9364	9367	1
9364	9374	1
9366	9367	1
9367	9372	1
9365	9366	1
9366	9373	1
9365	9371	1
9373	9375	1
9368	9369	1
9374	9376	1
9391	9394	1
9391	9392	1
9391	9397	1
9394	9395	1
9394	9400	1
9395	9396	1
9395	9402	1
9393	9396	1
9396	9401	1
9392	9393	1
9393	9403	1
9392	9399	1
9403	9405	1
9397	9398	1
9402	9404	1
9420	9423	1
9420	9421	1
9420	9426	1
9423	9424	1
9423	9429	1
9424	9425	1
9424	9431	1
9422	9425	1
9425	9430	1
9421	9422	1
9422	9432	1
9421	9428	1
9432	9434	1
9426	9427	1
9431	9433	1
2222	2223	1
2222	2225	1
2222	2228	1
2223	2224	1
2223	2230	1
2224	2227	1
2224	2234	1
2226	2227	1
2227	2232	1
2225	2226	1
2226	2233	1
2225	2231	1
2233	2235	1
2228	2229	1
2234	2236	1
2234	2237	1
2237	2238	1
9435	9438	1
9435	9436	1
9435	9441	1
9438	9439	1
9438	9444	1
9439	9440	1
9439	9446	1
9437	9440	1
9440	9445	1
9436	9437	1
9437	9447	1
9436	9443	1
9447	9449	1
9441	9442	1
9446	9448	1
9464	9467	1
9464	9465	1
9464	9470	1
9467	9468	1
9467	9473	1
9468	9469	1
9468	9475	1
9466	9469	1
9469	9474	1
9465	9466	1
9466	9476	1
9465	9472	1
9476	9478	1
9470	9471	1
9475	9477	1
9493	9494	1
9493	9496	1
9493	9499	1
9494	9495	1
9494	9501	1
9495	9498	1
9495	9505	1
9497	9498	1
9498	9503	1
9496	9497	1
9497	9504	1
9496	9502	1
9504	9506	1
9499	9500	1
9505	9507	1
9522	9525	1
9522	9523	1
9522	9528	1
9525	9526	1
9525	9531	1
9526	9527	1
9526	9533	1
9524	9527	1
9527	9532	1
9523	9524	1
9524	9534	1
9523	9530	1
9534	9536	1
9528	9529	1
9533	9535	1
9537	9538	1
9537	9540	1
9537	9543	1
9538	9539	1
9538	9545	1
9539	9542	1
9539	9549	1
9541	9542	1
9542	9547	1
9540	9541	1
9541	9548	1
9540	9546	1
9548	9550	1
9543	9544	1
9549	9551	1
2257	2258	1
2257	2256	1
2257	2264	1
2258	2255	1
2258	2263	1
2255	2254	1
2255	2265	1
2253	2254	1
2254	2261	1
2256	2253	1
2253	2259	1
2256	2262	1
2259	2260	1
2264	2266	1
2265	2267	1
2265	2268	1
2268	2269	1
9552	9553	1
9552	9555	1
9552	9558	1
9553	9554	1
9553	9560	1
9554	9557	1
9554	9564	1
9556	9557	1
9557	9562	1
9555	9556	1
9556	9563	1
9555	9561	1
9563	9565	1
9558	9559	1
9564	9566	1
9581	9582	1
9581	9584	1
9581	9587	1
9582	9583	1
9582	9589	1
9583	9586	1
9583	9593	1
9585	9586	1
9586	9591	1
9584	9585	1
9585	9592	1
9584	9590	1
9592	9594	1
9587	9588	1
9593	9595	1
9610	9611	1
9610	9613	1
9610	9616	1
9611	9612	1
9611	9618	1
9612	9615	1
9612	9622	1
9614	9615	1
9615	9620	1
9613	9614	1
9614	9621	1
9613	9619	1
9621	9623	1
9616	9617	1
9622	9624	1
9625	9628	1
9625	9626	1
9625	9631	1
9628	9629	1
9628	9634	1
9629	9630	1
9629	9636	1
9627	9630	1
9630	9635	1
9626	9627	1
9627	9637	1
9626	9633	1
9637	9639	1
9631	9632	1
9636	9638	1
9640	9643	1
9640	9641	1
9640	9646	1
9643	9644	1
9643	9649	1
9644	9645	1
9644	9651	1
9642	9645	1
9645	9650	1
9641	9642	1
9642	9652	1
9641	9648	1
9652	9654	1
9646	9647	1
9651	9653	1
9655	9656	1
9655	9658	1
9655	9661	1
9656	9657	1
9656	9663	1
9657	9660	1
9657	9667	1
9659	9660	1
9660	9665	1
9658	9659	1
9659	9666	1
9658	9664	1
9666	9668	1
9661	9662	1
9667	9669	1
9686	9685	1
9686	9689	1
9686	9696	1
9685	9684	1
9685	9692	1
9684	9687	1
9684	9690	1
9688	9687	1
9687	9693	1
9689	9688	1
9688	9695	1
9689	9694	1
9695	9697	1
9696	9698	1
9690	9691	1
9713	9714	1
9713	9716	1
9713	9719	1
9714	9715	1
9714	9721	1
9715	9718	1
9715	9725	1
9717	9718	1
9718	9723	1
9716	9717	1
9717	9724	1
9716	9722	1
9724	9726	1
9719	9720	1
9725	9727	1
9742	9743	1
9742	9745	1
9742	9748	1
9743	9744	1
9743	9750	1
9744	9747	1
9744	9754	1
9746	9747	1
9747	9752	1
9745	9746	1
9746	9753	1
9745	9751	1
9753	9755	1
9748	9749	1
9754	9756	1
9757	9758	1
9757	9760	1
9757	9763	1
9758	9759	1
9758	9765	1
9759	9762	1
9759	9769	1
9761	9762	1
9762	9767	1
9760	9761	1
9761	9768	1
9760	9766	1
9768	9770	1
9763	9764	1
9769	9771	1
2300	2301	1
2300	2305	1
2300	2298	1
2301	2302	1
2301	2311	1
2302	2303	1
2302	2308	1
2304	2303	1
2303	2312	1
2305	2304	1
2304	2306	1
2305	2313	1
2306	2307	1
2298	2299	1
2308	2309	1
2308	2310	1
2315	2316	1
2316	2319	1
2316	2326	1
2314	2315	1
2315	2322	1
2314	2317	1
2314	2320	1
2317	2318	1
2317	2323	1
2318	2319	1
2318	2325	1
2319	2324	1
2325	2327	1
2326	2328	1
2326	2329	1
2320	2321	1
2329	2330	1
228	229	1
233	228	1
228	226	1
230	229	1
229	240	1
231	230	1
230	236	1
232	231	1
231	241	1
232	233	1
232	234	1
233	242	1
234	235	1
226	227	1
226	225	1
236	237	1
236	238	1
225	239	1
9786	9789	1
9786	9787	1
9786	9792	1
9789	9790	1
9789	9795	1
9790	9791	1
9790	9797	1
9788	9791	1
9791	9796	1
9787	9788	1
9788	9798	1
9787	9794	1
9798	9800	1
9792	9793	1
9797	9799	1
9815	9816	1
9815	9818	1
9815	9821	1
9816	9817	1
9816	9823	1
9817	9820	1
9817	9827	1
9819	9820	1
9820	9825	1
9818	9819	1
9819	9826	1
9818	9824	1
9826	9828	1
9821	9822	1
9827	9829	1
9844	9845	1
9844	9847	1
9844	9850	1
9845	9846	1
9845	9852	1
9846	9849	1
9846	9856	1
9848	9849	1
9849	9854	1
9847	9848	1
9848	9855	1
9847	9853	1
9855	9857	1
9850	9851	1
9856	9858	1
9873	9876	1
9873	9874	1
9873	9879	1
9876	9877	1
9876	9882	1
9877	9878	1
9877	9884	1
9875	9878	1
9878	9883	1
9874	9875	1
9875	9885	1
9874	9881	1
9885	9887	1
9879	9880	1
9884	9886	1
9888	9891	1
9888	9889	1
9888	9894	1
9891	9892	1
9891	9897	1
9892	9893	1
9892	9899	1
9890	9893	1
9893	9898	1
9889	9890	1
9890	9900	1
9889	9896	1
9900	9902	1
9894	9895	1
9899	9901	1
2345	2346	1
2345	2348	1
2345	2351	1
2346	2347	1
2346	2353	1
2347	2350	1
2347	2357	1
2349	2350	1
2350	2355	1
2348	2349	1
2349	2356	1
2348	2354	1
2356	2358	1
2351	2352	1
2357	2359	1
2357	2360	1
2360	2361	1
9917	9918	1
9917	9920	1
9917	9923	1
9918	9919	1
9918	9925	1
9919	9922	1
9919	9929	1
9921	9922	1
9922	9927	1
9920	9921	1
9921	9928	1
9920	9926	1
9928	9930	1
9923	9924	1
9929	9931	1
9932	9935	1
9932	9933	1
9932	9938	1
9935	9936	1
9935	9941	1
9936	9937	1
9936	9943	1
9934	9937	1
9937	9942	1
9933	9934	1
9934	9944	1
9933	9940	1
9944	9946	1
9938	9939	1
9943	9945	1
264	265	1
264	263	1
264	266	1
265	260	1
265	274	1
260	261	1
260	258	1
262	261	1
261	272	1
263	262	1
262	268	1
263	273	1
268	269	1
268	270	1
266	267	1
258	259	1
258	257	1
257	271	1
9961	9962	1
9961	9964	1
9961	9967	1
9962	9963	1
9962	9969	1
9963	9966	1
9963	9973	1
9965	9966	1
9966	9971	1
9964	9965	1
9965	9972	1
9964	9970	1
9972	9974	1
9967	9968	1
9973	9975	1
9990	9991	1
9990	9993	1
9990	9996	1
9991	9992	1
9991	9998	1
9992	9995	1
9992	10002	1
9994	9995	1
9995	10000	1
9993	9994	1
9994	10001	1
9993	9999	1
10001	10003	1
9996	9997	1
10002	10004	1
10019	10022	1
10019	10020	1
10019	10025	1
10022	10023	1
10022	10028	1
10023	10024	1
10023	10030	1
10021	10024	1
10024	10029	1
10020	10021	1
10021	10031	1
10020	10027	1
10031	10033	1
10025	10026	1
10030	10032	1
10048	10051	1
10048	10049	1
10048	10054	1
10051	10052	1
10051	10057	1
10052	10053	1
10052	10059	1
10050	10053	1
10053	10058	1
10049	10050	1
10050	10060	1
10049	10056	1
10060	10062	1
10054	10055	1
10059	10061	1
10079	10078	1
10079	10082	1
10079	10089	1
10078	10077	1
10078	10085	1
10077	10080	1
10077	10083	1
10081	10080	1
10080	10086	1
10082	10081	1
10081	10088	1
10082	10087	1
10088	10090	1
10089	10091	1
10083	10084	1
10106	10107	1
10106	10109	1
10106	10112	1
10107	10108	1
10107	10114	1
10108	10111	1
10108	10118	1
10110	10111	1
10111	10116	1
10109	10110	1
10110	10117	1
10109	10115	1
10117	10119	1
10112	10113	1
10118	10120	1
10139	10140	1
10139	10138	1
10139	10146	1
10140	10137	1
10140	10145	1
10137	10136	1
10137	10147	1
10135	10136	1
10136	10143	1
10138	10135	1
10135	10141	1
10138	10144	1
10141	10142	1
10146	10148	1
10147	10149	1
10164	10165	1
10164	10167	1
10164	10170	1
10165	10166	1
10165	10172	1
10166	10169	1
10166	10176	1
10168	10169	1
10169	10174	1
10167	10168	1
10168	10175	1
10167	10173	1
10175	10177	1
10170	10171	1
10176	10178	1
10193	10194	1
10193	10196	1
10193	10199	1
10194	10195	1
10194	10201	1
10195	10198	1
10195	10205	1
10197	10198	1
10198	10203	1
10196	10197	1
10197	10204	1
10196	10202	1
10204	10206	1
10199	10200	1
10205	10207	1
10222	10223	1
10222	10225	1
10222	10228	1
10223	10224	1
10223	10230	1
10224	10227	1
10224	10234	1
10226	10227	1
10227	10232	1
10225	10226	1
10226	10233	1
10225	10231	1
10233	10235	1
10228	10229	1
10234	10236	1
10251	10254	1
10251	10252	1
10251	10257	1
10254	10255	1
10254	10260	1
10255	10256	1
10255	10262	1
10253	10256	1
10256	10261	1
10252	10253	1
10253	10263	1
10252	10259	1
10263	10265	1
10257	10258	1
10262	10264	1
10266	10269	1
10266	10267	1
10266	10272	1
10269	10270	1
10269	10275	1
10270	10271	1
10270	10277	1
10268	10271	1
10271	10276	1
10267	10268	1
10268	10278	1
10267	10274	1
10278	10280	1
10272	10273	1
10277	10279	1
10295	10296	1
10295	10298	1
10295	10301	1
10296	10297	1
10296	10303	1
10297	10300	1
10297	10307	1
10299	10300	1
10300	10305	1
10298	10299	1
10299	10306	1
10298	10304	1
10306	10308	1
10301	10302	1
10307	10309	1
10324	10325	1
10324	10327	1
10324	10330	1
10325	10326	1
10325	10332	1
10326	10329	1
10326	10336	1
10328	10329	1
10329	10334	1
10327	10328	1
10328	10335	1
10327	10333	1
10335	10337	1
10330	10331	1
10336	10338	1
10353	10354	1
10353	10356	1
10353	10359	1
10354	10355	1
10354	10361	1
10355	10358	1
10355	10365	1
10357	10358	1
10358	10363	1
10356	10357	1
10357	10364	1
10356	10362	1
10364	10366	1
10359	10360	1
10365	10367	1
2376	2377	1
2376	2379	1
2376	2382	1
2377	2378	1
2377	2384	1
2378	2381	1
2378	2388	1
2380	2381	1
2381	2386	1
2379	2380	1
2380	2387	1
2379	2385	1
2387	2389	1
2382	2383	1
2388	2390	1
2388	2391	1
2391	2392	1
10368	10369	1
10368	10371	1
10368	10374	1
10369	10370	1
10369	10376	1
10370	10373	1
10370	10380	1
10372	10373	1
10373	10378	1
10371	10372	1
10372	10379	1
10371	10377	1
10379	10381	1
10374	10375	1
10380	10382	1
10383	10384	1
10383	10386	1
10383	10389	1
10384	10385	1
10384	10391	1
10385	10388	1
10385	10395	1
10387	10388	1
10388	10393	1
10386	10387	1
10387	10394	1
10386	10392	1
10394	10396	1
10389	10390	1
10395	10397	1
10398	10401	1
10398	10399	1
10398	10404	1
10401	10402	1
10401	10407	1
10402	10403	1
10402	10409	1
10400	10403	1
10403	10408	1
10399	10400	1
10400	10410	1
10399	10406	1
10410	10412	1
10404	10405	1
10409	10411	1
10427	10430	1
10427	10428	1
10427	10433	1
10430	10431	1
10430	10436	1
10431	10432	1
10431	10438	1
10429	10432	1
10432	10437	1
10428	10429	1
10429	10439	1
10428	10435	1
10439	10441	1
10433	10434	1
10438	10440	1
10442	10445	1
10442	10443	1
10442	10448	1
10445	10446	1
10445	10451	1
10446	10447	1
10446	10453	1
10444	10447	1
10447	10452	1
10443	10444	1
10444	10454	1
10443	10450	1
10454	10456	1
10448	10449	1
10453	10455	1
10475	10476	1
10475	10474	1
10475	10482	1
10476	10473	1
10476	10481	1
10473	10472	1
10473	10483	1
10471	10472	1
10472	10479	1
10474	10471	1
10471	10477	1
10474	10480	1
10477	10478	1
10482	10484	1
10483	10485	1
10486	10489	1
10486	10487	1
10486	10492	1
10489	10490	1
10489	10495	1
10490	10491	1
10490	10497	1
10488	10491	1
10491	10496	1
10487	10488	1
10488	10498	1
10487	10494	1
10498	10500	1
10492	10493	1
10497	10499	1
10515	10516	1
10515	10518	1
10515	10521	1
10516	10517	1
10516	10523	1
10517	10520	1
10517	10527	1
10519	10520	1
10520	10525	1
10518	10519	1
10519	10526	1
10518	10524	1
10526	10528	1
10521	10522	1
10527	10529	1
10530	10531	1
10530	10533	1
10530	10536	1
10531	10532	1
10531	10538	1
10532	10535	1
10532	10542	1
10534	10535	1
10535	10540	1
10533	10534	1
10534	10541	1
10533	10539	1
10541	10543	1
10536	10537	1
10542	10544	1
2407	2408	1
2407	2410	1
2407	2413	1
2408	2409	1
2408	2415	1
2409	2412	1
2409	2419	1
2411	2412	1
2412	2417	1
2410	2411	1
2411	2418	1
2410	2416	1
2418	2420	1
2413	2414	1
2419	2421	1
2419	2422	1
2422	2423	1
10545	10546	1
10545	10548	1
10545	10551	1
10546	10547	1
10546	10553	1
10547	10550	1
10547	10557	1
10549	10550	1
10550	10555	1
10548	10549	1
10549	10556	1
10548	10554	1
10556	10558	1
10551	10552	1
10557	10559	1
2438	2439	1
2438	2441	1
2438	2444	1
2439	2440	1
2439	2446	1
2440	2443	1
2440	2450	1
2442	2443	1
2443	2448	1
2441	2442	1
2442	2449	1
2441	2447	1
2449	2451	1
2444	2445	1
2450	2452	1
2450	2453	1
2453	2454	1
10574	10575	1
10574	10577	1
10574	10580	1
10575	10576	1
10575	10582	1
10576	10579	1
10576	10586	1
10578	10579	1
10579	10584	1
10577	10578	1
10578	10585	1
10577	10583	1
10585	10587	1
10580	10581	1
10586	10588	1
2469	2470	1
2469	2472	1
2469	2475	1
2470	2471	1
2470	2477	1
2471	2474	1
2471	2481	1
2473	2474	1
2474	2479	1
2472	2473	1
2473	2480	1
2472	2478	1
2480	2482	1
2475	2476	1
2481	2483	1
2481	2484	1
2484	2485	1
10604	10605	1
10605	10608	1
10605	10615	1
10603	10604	1
10604	10611	1
10603	10606	1
10603	10609	1
10606	10607	1
10606	10612	1
10607	10608	1
10607	10614	1
10608	10613	1
10614	10616	1
10615	10617	1
10609	10610	1
10632	10635	1
10632	10633	1
10632	10638	1
10635	10636	1
10635	10641	1
10636	10637	1
10636	10643	1
10634	10637	1
10637	10642	1
10633	10634	1
10634	10644	1
10633	10640	1
10644	10646	1
10638	10639	1
10643	10645	1
10661	10662	1
10661	10664	1
10661	10667	1
10662	10663	1
10662	10669	1
10663	10666	1
10663	10673	1
10665	10666	1
10666	10671	1
10664	10665	1
10665	10672	1
10664	10670	1
10672	10674	1
10667	10668	1
10673	10675	1
2501	2502	1
2502	2505	1
2502	2512	1
2500	2501	1
2501	2508	1
2500	2503	1
2500	2506	1
2503	2504	1
2503	2509	1
2504	2505	1
2504	2511	1
2505	2510	1
2511	2513	1
2512	2514	1
2512	2515	1
2506	2507	1
2515	2516	1
2531	2532	1
2531	2534	1
2531	2537	1
2532	2533	1
2532	2539	1
2533	2536	1
2533	2543	1
2535	2536	1
2536	2541	1
2534	2535	1
2535	2542	1
2534	2540	1
2542	2544	1
2537	2538	1
2543	2545	1
2543	2546	1
2546	2547	1
10690	10691	1
10690	10693	1
10690	10696	1
10691	10692	1
10691	10698	1
10692	10695	1
10692	10702	1
10694	10695	1
10695	10700	1
10693	10694	1
10694	10701	1
10693	10699	1
10701	10703	1
10696	10697	1
10702	10704	1
10719	10722	1
10719	10720	1
10719	10725	1
10722	10723	1
10722	10728	1
10723	10724	1
10723	10730	1
10721	10724	1
10724	10729	1
10720	10721	1
10721	10731	1
10720	10727	1
10731	10733	1
10725	10726	1
10730	10732	1
10738	10739	1
10737	10738	1
10738	10745	1
10736	10739	1
10739	10744	1
10735	10736	1
10736	10746	1
10734	10735	1
10735	10742	1
10734	10737	1
10734	10740	1
10737	10743	1
10740	10741	1
10745	10747	1
10746	10748	1
10749	10752	1
10749	10750	1
10749	10755	1
10752	10753	1
10752	10758	1
10753	10754	1
10753	10760	1
10751	10754	1
10754	10759	1
10750	10751	1
10751	10761	1
10750	10757	1
10761	10763	1
10755	10756	1
10760	10762	1
10778	10781	1
10778	10779	1
10778	10784	1
10781	10782	1
10781	10787	1
10782	10783	1
10782	10789	1
10780	10783	1
10783	10788	1
10779	10780	1
10780	10790	1
10779	10786	1
10790	10792	1
10784	10785	1
10789	10791	1
10793	10794	1
10793	10796	1
10793	10799	1
10794	10795	1
10794	10801	1
10795	10798	1
10795	10805	1
10797	10798	1
10798	10803	1
10796	10797	1
10797	10804	1
10796	10802	1
10804	10806	1
10799	10800	1
10805	10807	1
10822	10823	1
10822	10825	1
10822	10828	1
10823	10824	1
10823	10830	1
10824	10827	1
10824	10834	1
10826	10827	1
10827	10832	1
10825	10826	1
10826	10833	1
10825	10831	1
10833	10835	1
10828	10829	1
10834	10836	1
10851	10854	1
10851	10852	1
10851	10857	1
10854	10855	1
10854	10860	1
10855	10856	1
10855	10862	1
10853	10856	1
10856	10861	1
10852	10853	1
10853	10863	1
10852	10859	1
10863	10865	1
10857	10858	1
10862	10864	1
10866	10869	1
10866	10867	1
10866	10872	1
10869	10870	1
10869	10875	1
10870	10871	1
10870	10877	1
10868	10871	1
10871	10876	1
10867	10868	1
10868	10878	1
10867	10874	1
10878	10880	1
10872	10873	1
10877	10879	1
10895	10896	1
10895	10898	1
10895	10901	1
10896	10897	1
10896	10903	1
10897	10900	1
10897	10907	1
10899	10900	1
10900	10905	1
10898	10899	1
10899	10906	1
10898	10904	1
10906	10908	1
10901	10902	1
10907	10909	1
10924	10925	1
10924	10927	1
10924	10930	1
10925	10926	1
10925	10932	1
10926	10929	1
10926	10936	1
10928	10929	1
10929	10934	1
10927	10928	1
10928	10935	1
10927	10933	1
10935	10937	1
10930	10931	1
10936	10938	1
10953	10954	1
10953	10956	1
10953	10959	1
10954	10955	1
10954	10961	1
10955	10958	1
10955	10965	1
10957	10958	1
10958	10963	1
10956	10957	1
10957	10964	1
10956	10962	1
10964	10966	1
10959	10960	1
10965	10967	1
10968	10971	1
10968	10969	1
10968	10974	1
10971	10972	1
10971	10977	1
10972	10973	1
10972	10979	1
10970	10973	1
10973	10978	1
10969	10970	1
10970	10980	1
10969	10976	1
10980	10982	1
10974	10975	1
10979	10981	1
10983	10986	1
10983	10984	1
10983	10989	1
10986	10987	1
10986	10992	1
10987	10988	1
10987	10994	1
10985	10988	1
10988	10993	1
10984	10985	1
10985	10995	1
10984	10991	1
10995	10997	1
10989	10990	1
10994	10996	1
10998	11001	1
10998	10999	1
10998	11004	1
11001	11002	1
11001	11007	1
11002	11003	1
11002	11009	1
11000	11003	1
11003	11008	1
10999	11000	1
11000	11010	1
10999	11006	1
11010	11012	1
11004	11005	1
11009	11011	1
11027	11028	1
11027	11030	1
11027	11033	1
11028	11029	1
11028	11035	1
11029	11032	1
11029	11039	1
11031	11032	1
11032	11037	1
11030	11031	1
11031	11038	1
11030	11036	1
11038	11040	1
11033	11034	1
11039	11041	1
11042	11045	1
11042	11043	1
11042	11048	1
11045	11046	1
11045	11051	1
11046	11047	1
11046	11053	1
11044	11047	1
11047	11052	1
11043	11044	1
11044	11054	1
11043	11050	1
11054	11056	1
11048	11049	1
11053	11055	1
2548	2551	1
2548	2549	1
2548	2554	1
2551	2552	1
2551	2557	1
2552	2553	1
2552	2559	1
2550	2553	1
2553	2558	1
2549	2550	1
2550	2560	1
2549	2556	1
2560	2562	1
2560	2563	1
2554	2555	1
2559	2561	1
2563	2564	1
11057	11058	1
11057	11060	1
11057	11063	1
11058	11059	1
11058	11065	1
11059	11062	1
11059	11069	1
11061	11062	1
11062	11067	1
11060	11061	1
11061	11068	1
11060	11066	1
11068	11070	1
11063	11064	1
11069	11071	1
11072	11073	1
11072	11075	1
11072	11078	1
11073	11074	1
11073	11080	1
11074	11077	1
11074	11084	1
11076	11077	1
11077	11082	1
11075	11076	1
11076	11083	1
11075	11081	1
11083	11085	1
11078	11079	1
11084	11086	1
11101	11102	1
11101	11104	1
11101	11107	1
11102	11103	1
11102	11109	1
11103	11106	1
11103	11113	1
11105	11106	1
11106	11111	1
11104	11105	1
11105	11112	1
11104	11110	1
11112	11114	1
11107	11108	1
11113	11115	1
11130	11131	1
11130	11133	1
11130	11136	1
11131	11132	1
11131	11138	1
11132	11135	1
11132	11142	1
11134	11135	1
11135	11140	1
11133	11134	1
11134	11141	1
11133	11139	1
11141	11143	1
11136	11137	1
11142	11144	1
2579	2580	1
2579	2582	1
2579	2585	1
2580	2581	1
2580	2587	1
2581	2584	1
2581	2591	1
2583	2584	1
2584	2589	1
2582	2583	1
2583	2590	1
2582	2588	1
2590	2592	1
2585	2586	1
2591	2593	1
2591	2594	1
2594	2595	1
11145	11146	1
11145	11148	1
11145	11151	1
11146	11147	1
11146	11153	1
11147	11150	1
11147	11157	1
11149	11150	1
11150	11155	1
11148	11149	1
11149	11156	1
11148	11154	1
11156	11158	1
11151	11152	1
11157	11159	1
11160	11163	1
11160	11161	1
11160	11166	1
11163	11164	1
11163	11169	1
11164	11165	1
11164	11171	1
11162	11165	1
11165	11170	1
11161	11162	1
11162	11172	1
11161	11168	1
11172	11174	1
11166	11167	1
11171	11173	1

[ angles ]
5309	5308	5319	1
5307	5308	5319	1
5319	6370	6360	1
5319	6370	6372	1
5309	5310	5317	1
5311	5310	5317	1
5317	5327	5321	1
5317	5327	5328	1
5308	5319	5320	1
5308	5319	6370	1
5308	5309	5310	1
5308	5309	5313	1
5308	5307	5312	1
5308	5307	5315	1
5310	5317	5318	1
5310	5317	5327	1
5310	5309	5313	1
5310	5311	5312	1
5310	5311	5314	1
5307	5308	5309	1
5309	5310	5311	1
5307	5312	5311	1
5307	5312	5316	1
5311	5312	5316	1
5312	5307	5315	1
5312	5311	5314	1
5320	5319	6370	1
5318	5317	5327	1
4568	4567	4578	1
4566	4567	4578	1
4578	5333	5323	1
4578	5333	5335	1
4568	4569	4576	1
4570	4569	4576	1
4576	4586	4580	1
4576	4586	4587	1
4567	4578	4579	1
4567	4578	5333	1
4567	4568	4569	1
4567	4568	4572	1
4567	4566	4571	1
4567	4566	4574	1
4569	4576	4577	1
4569	4576	4586	1
4569	4568	4572	1
4569	4570	4571	1
4569	4570	4573	1
4566	4567	4568	1
4568	4569	4570	1
4566	4571	4570	1
4566	4571	4575	1
4570	4571	4575	1
4571	4566	4574	1
4571	4570	4573	1
4579	4578	5333	1
4577	4576	4586	1
9832	9831	9842	1
9830	9831	9842	1
9842	9850	9844	1
9842	9850	9851	1
9832	9833	9840	1
9834	9833	9840	1
9840	8732	8722	1
9840	8732	8734	1
9831	9842	9843	1
9831	9842	9850	1
9831	9832	9833	1
9831	9832	9836	1
9831	9830	9835	1
9831	9830	9838	1
9833	9840	9841	1
9833	9840	8732	1
9833	9832	9836	1
9833	9834	9835	1
9833	9834	9837	1
9830	9831	9832	1
9832	9833	9834	1
9830	9835	9834	1
9830	9835	9839	1
9834	9835	9839	1
9835	9830	9838	1
9835	9834	9837	1
9843	9842	9850	1
9841	9840	8732	1
5164	5165	5172	1
5166	5165	5172	1
5172	7739	7729	1
5172	7739	7741	1
5164	5163	5174	1
5162	5163	5174	1
5174	5182	5176	1
5174	5182	5183	1
5165	5172	5173	1
5165	5172	7739	1
5165	5164	5163	1
5165	5164	5168	1
5165	5166	5167	1
5165	5166	5169	1
5163	5174	5175	1
5163	5174	5182	1
5163	5164	5168	1
5163	5162	5167	1
5163	5162	5170	1
5166	5165	5164	1
5164	5163	5162	1
5166	5167	5162	1
5166	5167	5171	1
5162	5167	5171	1
5167	5166	5169	1
5167	5162	5170	1
5173	5172	7739	1
5175	5174	5182	1
1361	1360	1371	1
1359	1360	1371	1
1346	1353	1371	1
1355	1353	1371	1
1361	1362	1369	1
1363	1362	1369	1
1369	7228	7221	1
1369	7228	7230	1
1360	1371	1372	1
1353	1371	1360	1
1360	1361	1362	1
1360	1361	1365	1
1360	1359	1364	1
1360	1359	1367	1
1362	1369	1370	1
1362	1369	7228	1
1362	1361	1365	1
1362	1363	1364	1
1362	1363	1366	1
1359	1360	1361	1
1361	1362	1363	1
1359	1364	1363	1
1359	1364	1368	1
1363	1364	1368	1
1364	1359	1367	1
1364	1363	1366	1
1353	1371	1372	1
1370	1369	7228	1
11597	11596	11607	1
11595	11596	11607	1
11607	4591	4584	1
11607	4591	4593	1
11597	11598	11605	1
11599	11598	11605	1
11605	10002	9992	1
11605	10002	10004	1
11596	11607	11608	1
11596	11607	4591	1
11596	11597	11598	1
11596	11597	11601	1
11596	11595	11600	1
11596	11595	11603	1
11598	11605	11606	1
11598	11605	10002	1
11598	11597	11601	1
11598	11599	11600	1
11598	11599	11602	1
11595	11596	11597	1
11597	11598	11599	1
11595	11600	11599	1
11595	11600	11604	1
11599	11600	11604	1
11600	11595	11603	1
11600	11599	11602	1
11608	11607	4591	1
11606	11605	10002	1
2627	2628	2635	1
2629	2628	2635	1
2635	3953	3943	1
2635	3953	3955	1
2627	2626	2637	1
2625	2626	2637	1
2628	2635	2636	1
2628	2635	3953	1
2626	2627	2628	1
2628	2627	2631	1
2628	2629	2630	1
2628	2629	2632	1
2626	2637	2638	1
2626	2637	2639	1
2626	2627	2631	1
2626	2625	2630	1
2626	2625	2633	1
2627	2628	2629	1
2625	2626	2627	1
2625	2630	2629	1
2629	2630	2634	1
2625	2630	2634	1
2630	2629	2632	1
2630	2625	2633	1
2636	2635	3953	1
2638	2637	2639	1
803	802	813	1
801	802	813	1
813	4505	4495	1
813	4505	4507	1
803	804	811	1
805	804	811	1
784	790	811	1
791	790	811	1
802	813	814	1
802	813	4505	1
802	803	804	1
802	803	807	1
802	801	806	1
802	801	809	1
804	811	812	1
790	811	804	1
804	803	807	1
804	805	806	1
804	805	808	1
801	802	803	1
803	804	805	1
801	806	805	1
801	806	810	1
805	806	810	1
806	801	809	1
806	805	808	1
814	813	4505	1
790	811	812	1
11118	11117	11128	1
11116	11117	11128	1
11128	4345	4335	1
11128	4345	4347	1
11118	11119	11126	1
11120	11119	11126	1
11126	11136	11130	1
11126	11136	11137	1
11117	11128	11129	1
11117	11128	4345	1
11117	11118	11119	1
11117	11118	11122	1
11117	11116	11121	1
11117	11116	11124	1
11119	11126	11127	1
11119	11126	11136	1
11119	11118	11122	1
11119	11120	11121	1
11119	11120	11123	1
11116	11117	11118	1
11118	11119	11120	1
11116	11121	11120	1
11116	11121	11125	1
11120	11121	11125	1
11121	11116	11124	1
11121	11120	11123	1
11129	11128	4345	1
11127	11126	11136	1
11541	11542	11549	1
11543	11542	11549	1
11549	4447	4437	1
11549	4447	4449	1
11541	11540	11551	1
11539	11540	11551	1
11551	7229	7219	1
11551	7229	7231	1
11542	11549	11550	1
11542	11549	4447	1
11542	11541	11540	1
11542	11541	11545	1
11542	11543	11544	1
11542	11543	11546	1
11540	11551	11552	1
11540	11551	7229	1
11540	11541	11545	1
11540	11539	11544	1
11540	11539	11547	1
11543	11542	11541	1
11541	11540	11539	1
11543	11544	11539	1
11543	11544	11548	1
11539	11544	11548	1
11544	11543	11546	1
11544	11539	11547	1
11550	11549	4447	1
11552	11551	7229	1
9861	9860	9871	1
9859	9860	9871	1
9871	5975	5968	1
9871	5975	5977	1
9861	9862	9869	1
9863	9862	9869	1
9869	9879	9873	1
9869	9879	9880	1
9860	9871	9872	1
9860	9871	5975	1
9860	9861	9862	1
9860	9861	9865	1
9860	9859	9864	1
9860	9859	9867	1
9862	9869	9870	1
9862	9869	9879	1
9862	9861	9865	1
9862	9863	9864	1
9862	9863	9866	1
9859	9860	9861	1
9861	9862	9863	1
9859	9864	9863	1
9859	9864	9868	1
9863	9864	9868	1
9864	9859	9867	1
9864	9863	9866	1
9872	9871	5975	1
9870	9869	9879	1
7190	7191	7198	1
7192	7191	7198	1
7198	10965	10955	1
7198	10965	10967	1
7190	7189	7200	1
7188	7189	7200	1
7200	7208	7202	1
7200	7208	7209	1
7191	7198	7199	1
7191	7198	10965	1
7189	7190	7191	1
7191	7190	7194	1
7191	7192	7193	1
7191	7192	7195	1
7189	7200	7201	1
7189	7200	7208	1
7189	7190	7194	1
7189	7188	7193	1
7189	7188	7196	1
7190	7191	7192	1
7188	7189	7190	1
7188	7193	7192	1
7192	7193	7197	1
7188	7193	7197	1
7193	7192	7195	1
7193	7188	7196	1
7199	7198	10965	1
7201	7200	7208	1
2837	2838	2845	1
2839	2838	2845	1
2845	5634	5628	1
2845	5634	5635	1
2837	2836	2847	1
2835	2836	2847	1
2838	2845	2846	1
2838	2845	5634	1
2836	2837	2838	1
2838	2837	2841	1
2838	2839	2840	1
2838	2839	2842	1
2836	2847	2849	1
2836	2847	2848	1
2836	2837	2841	1
2836	2835	2840	1
2836	2835	2843	1
2837	2838	2839	1
2835	2836	2837	1
2835	2840	2839	1
2839	2840	2844	1
2835	2840	2844	1
2840	2839	2842	1
2840	2835	2843	1
2846	2845	5634	1
2849	2847	2848	1
9510	9509	9520	1
9508	9509	9520	1
9520	9528	9522	1
9520	9528	9529	1
9510	9511	9518	1
9512	9511	9518	1
9518	5304	5294	1
9518	5304	5306	1
9509	9520	9521	1
9509	9520	9528	1
9509	9510	9511	1
9509	9510	9514	1
9509	9508	9513	1
9509	9508	9516	1
9511	9518	9519	1
9511	9518	5304	1
9511	9510	9514	1
9511	9512	9513	1
9511	9512	9515	1
9508	9509	9510	1
9510	9511	9512	1
9508	9513	9512	1
9508	9513	9517	1
9512	9513	9517	1
9513	9508	9516	1
9513	9512	9515	1
9521	9520	9528	1
9519	9518	5304	1
13697	13696	13707	1
13695	13696	13707	1
1530	1537	13707	1
1539	1537	13707	1
13697	13698	13705	1
13699	13698	13705	1
13705	10614	10607	1
13705	10614	10616	1
13696	13707	13708	1
1537	13707	13696	1
13696	13697	13698	1
13696	13697	13701	1
13696	13695	13700	1
13696	13695	13703	1
13698	13705	13706	1
13698	13705	10614	1
13698	13697	13701	1
13698	13699	13700	1
13698	13699	13702	1
13695	13696	13697	1
13697	13698	13699	1
13695	13700	13699	1
13695	13700	13704	1
13699	13700	13704	1
13700	13695	13703	1
13700	13699	13702	1
1537	13707	13708	1
13706	13705	10614	1
53	52	63	1
51	52	63	1
2531	2537	63	1
2538	2537	63	1
53	54	61	1
55	54	61	1
40	42	61	1
43	42	61	1
52	63	64	1
2537	63	52	1
52	53	54	1
52	53	57	1
52	51	56	1
52	51	59	1
54	61	62	1
42	61	54	1
54	53	57	1
54	55	56	1
54	55	58	1
51	52	53	1
53	54	55	1
51	56	55	1
51	56	60	1
55	56	60	1
56	51	59	1
56	55	58	1
2537	63	64	1
42	61	62	1
9569	9568	9579	1
9567	9568	9579	1
9579	5478	5471	1
9579	5478	5480	1
9569	9570	9577	1
9571	9570	9577	1
9577	9587	9581	1
9577	9587	9588	1
9568	9579	9580	1
9568	9579	5478	1
9568	9569	9570	1
9568	9569	9573	1
9568	9567	9572	1
9568	9567	9575	1
9570	9577	9578	1
9570	9577	9587	1
9570	9569	9573	1
9570	9571	9572	1
9570	9571	9574	1
9567	9568	9569	1
9569	9570	9571	1
9567	9572	9571	1
9567	9572	9576	1
9571	9572	9576	1
9572	9567	9575	1
9572	9571	9574	1
9580	9579	5478	1
9578	9577	9587	1
4219	4218	4229	1
4217	4218	4229	1
4229	10380	10370	1
4229	10380	10382	1
4219	4220	4227	1
4221	4220	4227	1
4227	4237	4231	1
4227	4237	4238	1
4218	4229	4230	1
4218	4229	10380	1
4218	4219	4220	1
4218	4219	4223	1
4218	4217	4222	1
4218	4217	4225	1
4220	4227	4228	1
4220	4227	4237	1
4220	4219	4223	1
4220	4221	4222	1
4220	4221	4224	1
4217	4218	4219	1
4219	4220	4221	1
4217	4222	4221	1
4217	4222	4226	1
4221	4222	4226	1
4222	4217	4225	1
4222	4221	4224	1
4230	4229	10380	1
4228	4227	4237	1
11289	11288	11299	1
11287	11288	11299	1
11299	4039	4032	1
11299	4039	4041	1
11289	11290	11297	1
11291	11290	11297	1
11297	10439	10429	1
11297	10439	10441	1
11288	11299	11300	1
11288	11299	4039	1
11288	11289	11290	1
11288	11289	11293	1
11288	11287	11292	1
11288	11287	11295	1
11290	11297	11298	1
11290	11297	10439	1
11290	11289	11293	1
11290	11291	11292	1
11290	11291	11294	1
11287	11288	11289	1
11289	11290	11291	1
11287	11292	11291	1
11287	11292	11296	1
11291	11292	11296	1
11292	11287	11295	1
11292	11291	11294	1
11300	11299	4039	1
11298	11297	10439	1
12255	12254	12265	1
12253	12254	12265	1
12265	9754	9744	1
12265	9754	9756	1
12255	12256	12263	1
12257	12256	12263	1
12263	5742	5732	1
12263	5742	5744	1
12254	12265	12266	1
12254	12265	9754	1
12254	12255	12256	1
12254	12255	12259	1
12254	12253	12258	1
12254	12253	12261	1
12256	12263	12264	1
12256	12263	5742	1
12256	12255	12259	1
12256	12257	12258	1
12256	12257	12260	1
12253	12254	12255	1
12255	12256	12257	1
12253	12258	12257	1
12253	12258	12262	1
12257	12258	12262	1
12258	12253	12261	1
12258	12257	12260	1
12266	12265	9754	1
12264	12263	5742	1
11345	11344	11355	1
11343	11344	11355	1
11355	4127	4117	1
11355	4127	4129	1
11345	11346	11353	1
11347	11346	11353	1
11353	7855	7845	1
11353	7855	7857	1
11344	11355	11356	1
11344	11355	4127	1
11344	11345	11346	1
11344	11345	11349	1
11344	11343	11348	1
11344	11343	11351	1
11346	11353	11354	1
11346	11353	7855	1
11346	11345	11349	1
11346	11347	11348	1
11346	11347	11350	1
11343	11344	11345	1
11345	11346	11347	1
11343	11348	11347	1
11343	11348	11352	1
11347	11348	11352	1
11348	11343	11351	1
11348	11347	11350	1
11356	11355	4127	1
11354	11353	7855	1
8035	8036	8043	1
8037	8036	8043	1
8043	8053	8047	1
8043	8053	8054	1
8035	8034	8045	1
8033	8034	8045	1
8045	7156	7146	1
8045	7156	7158	1
8036	8043	8044	1
8036	8043	8053	1
8036	8035	8034	1
8036	8035	8039	1
8036	8037	8038	1
8036	8037	8040	1
8034	8045	8046	1
8034	8045	7156	1
8034	8035	8039	1
8034	8033	8038	1
8034	8033	8041	1
8037	8036	8035	1
8035	8034	8033	1
8037	8038	8033	1
8037	8038	8042	1
8033	8038	8042	1
8038	8037	8040	1
8038	8033	8041	1
8044	8043	8053	1
8046	8045	7156	1
9803	9802	9813	1
9801	9802	9813	1
9813	9821	9815	1
9813	9821	9822	1
9803	9804	9811	1
9805	9804	9811	1
9811	10374	10368	1
9811	10374	10375	1
9802	9813	9814	1
9802	9813	9821	1
9802	9803	9804	1
9802	9803	9807	1
9802	9801	9806	1
9802	9801	9809	1
9804	9811	9812	1
9804	9811	10374	1
9804	9803	9807	1
9804	9805	9806	1
9804	9805	9808	1
9801	9802	9803	1
9803	9804	9805	1
9801	9806	9805	1
9801	9806	9810	1
9805	9806	9810	1
9806	9801	9809	1
9806	9805	9808	1
9814	9813	9821	1
9812	9811	10374	1
13767	13766	13777	1
13765	13766	13777	1
1342	1348	13777	1
1349	1348	13777	1
13767	13768	13775	1
13769	13768	13775	1
1638	1640	13775	1
1641	1640	13775	1
13766	13777	13778	1
1348	13777	13766	1
13766	13767	13768	1
13766	13767	13771	1
13766	13765	13770	1
13766	13765	13773	1
13768	13775	13776	1
1640	13775	13768	1
13768	13767	13771	1
13768	13769	13770	1
13768	13769	13772	1
13765	13766	13767	1
13767	13768	13769	1
13765	13770	13769	1
13765	13770	13774	1
13769	13770	13774	1
13770	13765	13773	1
13770	13769	13772	1
1348	13777	13778	1
1640	13775	13776	1
8942	8941	8952	1
8940	8941	8952	1
8952	8960	8954	1
8952	8960	8961	1
8942	8943	8950	1
8944	8943	8950	1
8950	8527	8520	1
8950	8527	8529	1
8941	8952	8953	1
8941	8952	8960	1
8941	8942	8943	1
8941	8942	8946	1
8941	8940	8945	1
8941	8940	8948	1
8943	8950	8951	1
8943	8950	8527	1
8943	8942	8946	1
8943	8944	8945	1
8943	8944	8947	1
8940	8941	8942	1
8942	8943	8944	1
8940	8945	8944	1
8940	8945	8949	1
8944	8945	8949	1
8945	8940	8948	1
8945	8944	8947	1
8953	8952	8960	1
8951	8950	8527	1
10415	10416	10423	1
10417	10416	10423	1
10423	10433	10427	1
10423	10433	10434	1
10415	10414	10425	1
10413	10414	10425	1
10425	11069	11059	1
10425	11069	11071	1
10416	10423	10424	1
10416	10423	10433	1
10414	10415	10416	1
10416	10415	10419	1
10416	10417	10418	1
10416	10417	10420	1
10414	10425	10426	1
10414	10425	11069	1
10414	10415	10419	1
10414	10413	10418	1
10414	10413	10421	1
10415	10416	10417	1
10413	10414	10415	1
10413	10418	10417	1
10417	10418	10422	1
10413	10418	10422	1
10418	10417	10420	1
10418	10413	10421	1
10424	10423	10433	1
10426	10425	11069	1
4931	4930	4941	1
4929	4930	4941	1
4941	4949	4943	1
4941	4949	4950	1
4931	4932	4939	1
4933	4932	4939	1
4939	11068	11061	1
4939	11068	11070	1
4930	4941	4942	1
4930	4941	4949	1
4930	4931	4932	1
4930	4931	4935	1
4930	4929	4934	1
4930	4929	4937	1
4932	4939	4940	1
4932	4939	11068	1
4932	4931	4935	1
4932	4933	4934	1
4932	4933	4936	1
4929	4930	4931	1
4931	4932	4933	1
4929	4934	4933	1
4929	4934	4938	1
4933	4934	4938	1
4934	4929	4937	1
4934	4933	4936	1
4942	4941	4949	1
4940	4939	11068	1
3047	3048	3055	1
3049	3048	3055	1
3055	7433	7423	1
3055	7433	7435	1
3047	3046	3057	1
3045	3046	3057	1
3048	3055	3056	1
3048	3055	7433	1
3046	3047	3048	1
3048	3047	3051	1
3048	3049	3050	1
3048	3049	3052	1
3046	3057	3058	1
3046	3057	3059	1
3046	3047	3051	1
3046	3045	3050	1
3046	3045	3053	1
3047	3048	3049	1
3045	3046	3047	1
3045	3050	3049	1
3049	3050	3054	1
3045	3050	3054	1
3050	3049	3052	1
3050	3045	3053	1
3056	3055	7433	1
3058	3057	3059	1
10941	10940	10951	1
10939	10940	10951	1
10951	10365	10355	1
10951	10365	10367	1
10941	10942	10949	1
10943	10942	10949	1
10949	10959	10953	1
10949	10959	10960	1
10940	10951	10952	1
10940	10951	10365	1
10940	10941	10942	1
10940	10941	10945	1
10940	10939	10944	1
10940	10939	10947	1
10942	10949	10950	1
10942	10949	10959	1
10942	10941	10945	1
10942	10943	10944	1
10942	10943	10946	1
10939	10940	10941	1
10941	10942	10943	1
10939	10944	10943	1
10939	10944	10948	1
10943	10944	10948	1
10944	10939	10947	1
10944	10943	10946	1
10952	10951	10365	1
10950	10949	10959	1
11947	11946	11957	1
11945	11946	11957	1
2116	2123	11957	1
2125	2123	11957	1
11947	11948	11955	1
11949	11948	11955	1
11955	5158	5151	1
11955	5158	5160	1
11946	11957	11958	1
2123	11957	11946	1
11946	11947	11948	1
11946	11947	11951	1
11946	11945	11950	1
11946	11945	11953	1
11948	11955	11956	1
11948	11955	5158	1
11948	11947	11951	1
11948	11949	11950	1
11948	11949	11952	1
11945	11946	11947	1
11947	11948	11949	1
11945	11950	11949	1
11945	11950	11954	1
11949	11950	11954	1
11950	11945	11953	1
11950	11949	11952	1
2123	11957	11958	1
11956	11955	5158	1
8606	8607	8614	1
8608	8607	8614	1
8614	8624	8618	1
8614	8624	8625	1
8606	8605	8616	1
8604	8605	8616	1
8616	6049	6039	1
8616	6049	6051	1
8607	8614	8615	1
8607	8614	8624	1
8607	8606	8605	1
8607	8606	8610	1
8607	8608	8609	1
8607	8608	8611	1
8605	8616	8617	1
8605	8616	6049	1
8605	8606	8610	1
8605	8604	8609	1
8605	8604	8612	1
8608	8607	8606	1
8606	8605	8604	1
8608	8609	8604	1
8608	8609	8613	1
8604	8609	8613	1
8609	8608	8611	1
8609	8604	8612	1
8615	8614	8624	1
8617	8616	6049	1
3302	3301	3312	1
3300	3301	3312	1
3302	3303	3310	1
3304	3303	3310	1
3310	8975	8969	1
3310	8975	8976	1
3301	3312	3314	1
3301	3312	3313	1
3301	3302	3303	1
3301	3302	3306	1
3301	3300	3305	1
3301	3300	3308	1
3303	3310	3311	1
3303	3310	8975	1
3303	3302	3306	1
3303	3304	3305	1
3303	3304	3307	1
3300	3301	3302	1
3302	3303	3304	1
3300	3305	3304	1
3300	3305	3309	1
3304	3305	3309	1
3305	3300	3308	1
3305	3304	3307	1
3314	3312	3313	1
3311	3310	8975	1
3227	3226	3237	1
3225	3226	3237	1
3227	3228	3235	1
3229	3228	3235	1
3235	8566	8560	1
3235	8566	8567	1
3226	3237	3239	1
3226	3237	3238	1
3226	3227	3228	1
3226	3227	3231	1
3226	3225	3230	1
3226	3225	3233	1
3228	3235	3236	1
3228	3235	8566	1
3228	3227	3231	1
3228	3229	3230	1
3228	3229	3232	1
3225	3226	3227	1
3227	3228	3229	1
3225	3230	3229	1
3225	3230	3234	1
3229	3230	3234	1
3230	3225	3233	1
3230	3229	3232	1
3238	3237	3239	1
3236	3235	8566	1
2852	2853	2860	1
2854	2853	2860	1
2860	5639	5632	1
2860	5639	5641	1
2852	2851	2862	1
2850	2851	2862	1
2853	2860	2861	1
2853	2860	5639	1
2851	2852	2853	1
2853	2852	2856	1
2853	2854	2855	1
2853	2854	2857	1
2851	2862	2863	1
2851	2862	2864	1
2851	2852	2856	1
2851	2850	2855	1
2851	2850	2858	1
2852	2853	2854	1
2850	2851	2852	1
2850	2855	2854	1
2854	2855	2859	1
2850	2855	2859	1
2855	2854	2857	1
2855	2850	2858	1
2861	2860	5639	1
2863	2862	2864	1
13403	13402	13413	1
13401	13402	13413	1
13413	8571	8564	1
13413	8571	8573	1
13403	13404	13411	1
13405	13404	13411	1
13411	8426	8416	1
13411	8426	8428	1
13402	13413	13414	1
13402	13413	8571	1
13402	13403	13404	1
13402	13403	13407	1
13402	13401	13406	1
13402	13401	13409	1
13404	13411	13412	1
13404	13411	8426	1
13404	13403	13407	1
13404	13405	13406	1
13404	13405	13408	1
13401	13402	13403	1
13403	13404	13405	1
13401	13406	13405	1
13401	13406	13410	1
13405	13406	13410	1
13406	13401	13409	1
13406	13405	13408	1
13414	13413	8571	1
13412	13411	8426	1
3152	3151	3162	1
3150	3151	3162	1
3152	3153	3160	1
3154	3153	3160	1
3160	8132	8122	1
3160	8132	8134	1
3151	3162	3163	1
3151	3162	3164	1
3151	3152	3153	1
3151	3152	3156	1
3151	3150	3155	1
3151	3150	3158	1
3153	3160	3161	1
3153	3160	8132	1
3153	3152	3156	1
3153	3154	3155	1
3153	3154	3157	1
3150	3151	3152	1
3152	3153	3154	1
3150	3155	3154	1
3150	3155	3159	1
3154	3155	3159	1
3155	3150	3158	1
3155	3154	3157	1
3163	3162	3164	1
3161	3160	8132	1
2395	2394	2405	1
2393	2394	2405	1
2376	2382	2405	1
2383	2382	2405	1
2395	2396	2403	1
2397	2396	2403	1
2403	6048	6041	1
2403	6048	6050	1
2394	2405	2406	1
2382	2405	2394	1
2394	2395	2396	1
2394	2395	2399	1
2394	2393	2398	1
2394	2393	2401	1
2396	2403	2404	1
2396	2403	6048	1
2396	2395	2399	1
2396	2397	2398	1
2396	2397	2400	1
2393	2394	2395	1
2395	2396	2397	1
2393	2398	2397	1
2393	2398	2402	1
2397	2398	2402	1
2398	2393	2401	1
2398	2397	2400	1
2382	2405	2406	1
2404	2403	6048	1
10036	10035	10046	1
10034	10035	10046	1
10046	10054	10048	1
10046	10054	10055	1
10036	10037	10044	1
10038	10037	10044	1
10044	11063	11057	1
10044	11063	11064	1
10035	10046	10047	1
10035	10046	10054	1
10035	10036	10037	1
10035	10036	10040	1
10035	10034	10039	1
10035	10034	10042	1
10037	10044	10045	1
10037	10044	11063	1
10037	10036	10040	1
10037	10038	10039	1
10037	10038	10041	1
10034	10035	10036	1
10036	10037	10038	1
10034	10039	10038	1
10034	10039	10043	1
10038	10039	10043	1
10039	10034	10042	1
10039	10038	10041	1
10047	10046	10054	1
10045	10044	11063	1
5193	5192	5203	1
5191	5192	5203	1
5203	7374	7364	1
5203	7374	7376	1
5193	5194	5201	1
5195	5194	5201	1
5201	5211	5205	1
5201	5211	5212	1
5192	5203	5204	1
5192	5203	7374	1
5192	5193	5194	1
5192	5193	5197	1
5192	5191	5196	1
5192	5191	5199	1
5194	5201	5202	1
5194	5201	5211	1
5194	5193	5197	1
5194	5195	5196	1
5194	5195	5198	1
5191	5192	5193	1
5193	5194	5195	1
5191	5196	5195	1
5191	5196	5200	1
5195	5196	5200	1
5196	5191	5199	1
5196	5195	5198	1
5204	5203	7374	1
5202	5201	5211	1
11485	11486	11493	1
11487	11486	11493	1
540	547	11493	1
549	547	11493	1
11485	11484	11495	1
11483	11484	11495	1
11495	4344	4337	1
11495	4344	4346	1
11486	11493	11494	1
547	11493	11486	1
11484	11485	11486	1
11486	11485	11489	1
11486	11487	11488	1
11486	11487	11490	1
11484	11495	11496	1
11484	11495	4344	1
11484	11485	11489	1
11484	11483	11488	1
11484	11483	11491	1
11485	11486	11487	1
11483	11484	11485	1
11483	11488	11487	1
11487	11488	11492	1
11483	11488	11492	1
11488	11487	11490	1
11488	11483	11491	1
547	11493	11494	1
11496	11495	4344	1
5033	5032	5043	1
5031	5032	5043	1
5043	5051	5045	1
5043	5051	5052	1
5033	5034	5041	1
5035	5034	5041	1
5041	8366	8359	1
5041	8366	8368	1
5032	5043	5044	1
5032	5043	5051	1
5032	5033	5034	1
5032	5033	5037	1
5032	5031	5036	1
5032	5031	5039	1
5034	5041	5042	1
5034	5041	8366	1
5034	5033	5037	1
5034	5035	5036	1
5034	5035	5038	1
5031	5032	5033	1
5033	5034	5035	1
5031	5036	5035	1
5031	5036	5040	1
5035	5036	5040	1
5036	5031	5039	1
5036	5035	5038	1
5044	5043	5051	1
5042	5041	8366	1
277	276	287	1
275	276	287	1
264	266	287	1
267	266	287	1
277	278	285	1
279	278	285	1
285	5917	5907	1
285	5917	5919	1
276	287	288	1
266	287	276	1
276	277	278	1
276	277	281	1
276	275	280	1
276	275	283	1
278	285	286	1
278	285	5917	1
278	277	281	1
278	279	280	1
278	279	282	1
275	276	277	1
277	278	279	1
275	280	279	1
275	280	284	1
279	280	284	1
280	275	283	1
280	279	282	1
266	287	288	1
286	285	5917	1
11989	11990	11997	1
11991	11990	11997	1
911	918	11997	1
920	918	11997	1
11989	11988	11999	1
11987	11988	11999	1
11999	5275	5265	1
11999	5275	5277	1
11990	11997	11998	1
918	11997	11990	1
11988	11989	11990	1
11990	11989	11993	1
11990	11991	11992	1
11990	11991	11994	1
11988	11999	12000	1
11988	11999	5275	1
11988	11989	11993	1
11988	11987	11992	1
11988	11987	11995	1
11989	11990	11991	1
11987	11988	11989	1
11987	11992	11991	1
11991	11992	11996	1
11987	11992	11996	1
11992	11991	11994	1
11992	11987	11995	1
918	11997	11998	1
12000	11999	5275	1
4190	4189	4200	1
4188	4189	4200	1
4200	4208	4202	1
4200	4208	4209	1
4190	4191	4198	1
4192	4191	4198	1
4198	7957	7947	1
4198	7957	7959	1
4189	4200	4201	1
4189	4200	4208	1
4189	4190	4191	1
4189	4190	4194	1
4189	4188	4193	1
4189	4188	4196	1
4191	4198	4199	1
4191	4198	7957	1
4191	4190	4194	1
4191	4192	4193	1
4191	4192	4195	1
4188	4189	4190	1
4190	4191	4192	1
4188	4193	4192	1
4188	4193	4197	1
4192	4193	4197	1
4193	4188	4196	1
4193	4192	4195	1
4201	4200	4208	1
4199	4198	7957	1
3677	3676	3687	1
3675	3676	3687	1
3677	3678	3685	1
3679	3678	3685	1
3685	10989	10983	1
3685	10989	10990	1
3676	3687	3689	1
3676	3687	3688	1
3676	3677	3678	1
3676	3677	3681	1
3676	3675	3680	1
3676	3675	3683	1
3678	3685	3686	1
3678	3685	10989	1
3678	3677	3681	1
3678	3679	3680	1
3678	3679	3682	1
3675	3676	3677	1
3677	3678	3679	1
3675	3680	3679	1
3675	3680	3684	1
3679	3680	3684	1
3680	3675	3683	1
3680	3679	3682	1
3689	3687	3688	1
3686	3685	10989	1
11275	11274	11285	1
11273	11274	11285	1
11285	4040	4030	1
11285	4040	4042	1
11275	11276	11283	1
11277	11276	11283	1
11283	11142	11132	1
11283	11142	11144	1
11274	11285	11286	1
11274	11285	4040	1
11274	11275	11276	1
11274	11275	11279	1
11274	11273	11278	1
11274	11273	11281	1
11276	11283	11284	1
11276	11283	11142	1
11276	11275	11279	1
11276	11277	11278	1
11276	11277	11280	1
11273	11274	11275	1
11275	11276	11277	1
11273	11278	11277	1
11273	11278	11282	1
11277	11278	11282	1
11278	11273	11281	1
11278	11277	11280	1
11286	11285	4040	1
11284	11283	11142	1
2717	2716	2727	1
2715	2716	2727	1
2717	2718	2725	1
2719	2718	2725	1
2725	4983	4976	1
2725	4983	4985	1
2716	2727	2729	1
2716	2727	2728	1
2716	2717	2718	1
2716	2717	2721	1
2716	2715	2720	1
2716	2715	2723	1
2718	2725	2726	1
2718	2725	4983	1
2718	2717	2721	1
2718	2719	2720	1
2718	2719	2722	1
2715	2716	2717	1
2717	2718	2719	1
2715	2720	2719	1
2715	2720	2724	1
2719	2720	2724	1
2720	2715	2723	1
2720	2719	2722	1
2729	2727	2728	1
2726	2725	4983	1
10239	10238	10249	1
10237	10238	10249	1
10249	10257	10251	1
10249	10257	10258	1
10239	10240	10247	1
10241	10240	10247	1
10247	10799	10793	1
10247	10799	10800	1
10238	10249	10250	1
10238	10249	10257	1
10238	10239	10240	1
10238	10239	10243	1
10238	10237	10242	1
10238	10237	10245	1
10240	10247	10248	1
10240	10247	10799	1
10240	10239	10243	1
10240	10241	10242	1
10240	10241	10244	1
10237	10238	10239	1
10239	10240	10241	1
10237	10242	10241	1
10237	10242	10246	1
10241	10242	10246	1
10242	10237	10245	1
10242	10241	10244	1
10250	10249	10257	1
10248	10247	10799	1
12367	12366	12377	1
12365	12366	12377	1
12377	10059	10052	1
12377	10059	10061	1
12367	12368	12375	1
12369	12368	12375	1
12375	5873	5863	1
12375	5873	5875	1
12366	12377	12378	1
12366	12377	10059	1
12366	12367	12368	1
12366	12367	12371	1
12366	12365	12370	1
12366	12365	12373	1
12368	12375	12376	1
12368	12375	5873	1
12368	12367	12371	1
12368	12369	12370	1
12368	12369	12372	1
12365	12366	12367	1
12367	12368	12369	1
12365	12370	12369	1
12365	12370	12374	1
12369	12370	12374	1
12370	12365	12373	1
12370	12369	12372	1
12378	12377	10059	1
12376	12375	5873	1
11681	11680	11691	1
11679	11680	11691	1
1158	1165	11691	1
1167	1165	11691	1
11681	11682	11689	1
11683	11682	11689	1
11689	4736	4729	1
11689	4736	4738	1
11680	11691	11692	1
1165	11691	11680	1
11680	11681	11682	1
11680	11681	11685	1
11680	11679	11684	1
11680	11679	11687	1
11682	11689	11690	1
11682	11689	4736	1
11682	11681	11685	1
11682	11683	11684	1
11682	11683	11686	1
11679	11680	11681	1
11681	11682	11683	1
11679	11684	11683	1
11679	11684	11688	1
11683	11684	11688	1
11684	11679	11687	1
11684	11683	11686	1
1165	11691	11692	1
11690	11689	4736	1
5106	5105	5116	1
5104	5105	5116	1
5116	9315	9308	1
5116	9315	9317	1
5106	5107	5114	1
5108	5107	5114	1
5114	5124	5118	1
5114	5124	5125	1
5105	5116	5117	1
5105	5116	9315	1
5105	5106	5107	1
5105	5106	5110	1
5105	5104	5109	1
5105	5104	5112	1
5107	5114	5115	1
5107	5114	5124	1
5107	5106	5110	1
5107	5108	5109	1
5107	5108	5111	1
5104	5105	5106	1
5106	5107	5108	1
5104	5109	5108	1
5104	5109	5113	1
5108	5109	5113	1
5109	5104	5112	1
5109	5108	5111	1
5117	5116	9315	1
5115	5114	5124	1
10312	10311	10322	1
10310	10311	10322	1
10322	7768	7758	1
10322	7768	7770	1
10312	10313	10320	1
10314	10313	10320	1
10320	10330	10324	1
10320	10330	10331	1
10311	10322	10323	1
10311	10322	7768	1
10311	10312	10313	1
10311	10312	10316	1
10311	10310	10315	1
10311	10310	10318	1
10313	10320	10321	1
10313	10320	10330	1
10313	10312	10316	1
10313	10314	10315	1
10313	10314	10317	1
10310	10311	10312	1
10312	10313	10314	1
10310	10315	10314	1
10310	10315	10319	1
10314	10315	10319	1
10315	10310	10318	1
10315	10314	10317	1
10323	10322	7768	1
10321	10320	10330	1
7613	7612	7623	1
7611	7612	7623	1
7623	7631	7625	1
7623	7631	7632	1
7613	7614	7621	1
7615	7614	7621	1
7621	10974	10968	1
7621	10974	10975	1
7612	7623	7624	1
7612	7623	7631	1
7612	7613	7614	1
7612	7613	7617	1
7612	7611	7616	1
7612	7611	7619	1
7614	7621	7622	1
7614	7621	10974	1
7614	7613	7617	1
7614	7615	7616	1
7614	7615	7618	1
7611	7612	7613	1
7613	7614	7615	1
7611	7616	7615	1
7611	7616	7620	1
7615	7616	7620	1
7616	7611	7619	1
7616	7615	7618	1
7624	7623	7631	1
7622	7621	10974	1
11191	11190	11201	1
11189	11190	11201	1
897	899	11201	1
900	899	11201	1
11191	11192	11199	1
11193	11192	11199	1
11199	3851	3841	1
11199	3851	3853	1
11190	11201	11202	1
899	11201	11190	1
11190	11191	11192	1
11190	11191	11195	1
11190	11189	11194	1
11190	11189	11197	1
11192	11199	11200	1
11192	11199	3851	1
11192	11191	11195	1
11192	11193	11194	1
11192	11193	11196	1
11189	11190	11191	1
11191	11192	11193	1
11189	11194	11193	1
11189	11194	11198	1
11193	11194	11198	1
11194	11189	11197	1
11194	11193	11196	1
899	11201	11202	1
11200	11199	3851	1
9118	9119	9126	1
9120	9119	9126	1
9126	9476	9466	1
9126	9476	9478	1
9118	9117	9128	1
9116	9117	9128	1
9128	9136	9130	1
9128	9136	9137	1
9119	9126	9127	1
9119	9126	9476	1
9117	9118	9119	1
9119	9118	9122	1
9119	9120	9121	1
9119	9120	9123	1
9117	9128	9129	1
9117	9128	9136	1
9117	9118	9122	1
9117	9116	9121	1
9117	9116	9124	1
9118	9119	9120	1
9116	9117	9118	1
9116	9121	9120	1
9120	9121	9125	1
9116	9121	9125	1
9121	9120	9123	1
9121	9116	9124	1
9127	9126	9476	1
9129	9128	9136	1
555	556	563	1
557	556	563	1
536	542	563	1
543	542	563	1
555	554	565	1
553	554	565	1
565	5274	5267	1
565	5274	5276	1
556	563	564	1
542	563	556	1
556	555	554	1
556	555	559	1
556	557	558	1
556	557	560	1
554	565	566	1
554	565	5274	1
554	555	559	1
554	553	558	1
554	553	561	1
557	556	555	1
555	554	553	1
557	558	553	1
557	558	562	1
553	558	562	1
558	557	560	1
558	553	561	1
542	563	564	1
566	565	5274	1
2972	2973	2980	1
2974	2973	2980	1
2980	6675	6665	1
2980	6675	6677	1
2972	2971	2982	1
2970	2971	2982	1
2973	2980	2981	1
2973	2980	6675	1
2971	2972	2973	1
2973	2972	2976	1
2973	2974	2975	1
2973	2974	2977	1
2971	2982	2983	1
2971	2982	2984	1
2971	2972	2976	1
2971	2970	2975	1
2971	2970	2978	1
2972	2973	2974	1
2970	2971	2972	1
2970	2975	2974	1
2974	2975	2979	1
2970	2975	2979	1
2975	2974	2977	1
2975	2970	2978	1
2981	2980	6675	1
2983	2982	2984	1
9089	9088	9099	1
9087	9088	9099	1
9099	10438	10431	1
9099	10438	10440	1
9089	9090	9097	1
9091	9090	9097	1
9097	9107	9101	1
9097	9107	9108	1
9088	9099	9100	1
9088	9099	10438	1
9088	9089	9090	1
9088	9089	9093	1
9088	9087	9092	1
9088	9087	9095	1
9090	9097	9098	1
9090	9097	9107	1
9090	9089	9093	1
9090	9091	9092	1
9090	9091	9094	1
9087	9088	9089	1
9089	9090	9091	1
9087	9092	9091	1
9087	9092	9096	1
9091	9092	9096	1
9092	9087	9095	1
9092	9091	9094	1
9100	9099	10438	1
9098	9097	9107	1
13501	13500	13511	1
13499	13500	13511	1
13511	9113	9103	1
13511	9113	9115	1
13501	13502	13509	1
13503	13502	13509	1
13509	8980	8973	1
13509	8980	8982	1
13500	13511	13512	1
13500	13511	9113	1
13500	13501	13502	1
13500	13501	13505	1
13500	13499	13504	1
13500	13499	13507	1
13502	13509	13510	1
13502	13509	8980	1
13502	13501	13505	1
13502	13503	13504	1
13502	13503	13506	1
13499	13500	13501	1
13501	13502	13503	1
13499	13504	13503	1
13499	13504	13508	1
13503	13504	13508	1
13504	13499	13507	1
13504	13503	13506	1
13512	13511	9113	1
13510	13509	8980	1
3407	3408	3415	1
3409	3408	3415	1
3415	9447	9437	1
3415	9447	9449	1
3407	3406	3417	1
3405	3406	3417	1
3408	3415	3416	1
3408	3415	9447	1
3406	3407	3408	1
3408	3407	3411	1
3408	3409	3410	1
3408	3409	3412	1
3406	3417	3418	1
3406	3417	3419	1
3406	3407	3411	1
3406	3405	3410	1
3406	3405	3413	1
3407	3408	3409	1
3405	3406	3407	1
3405	3410	3409	1
3409	3410	3414	1
3405	3410	3414	1
3410	3409	3412	1
3410	3405	3413	1
3416	3415	9447	1
3418	3417	3419	1
7962	7961	7972	1
7960	7961	7972	1
7972	6951	6944	1
7972	6951	6953	1
7962	7963	7970	1
7964	7963	7970	1
7970	7980	7974	1
7970	7980	7981	1
7961	7972	7973	1
7961	7972	6951	1
7961	7962	7963	1
7961	7962	7966	1
7961	7960	7965	1
7961	7960	7968	1
7963	7970	7971	1
7963	7970	7980	1
7963	7962	7966	1
7963	7964	7965	1
7963	7964	7967	1
7960	7961	7962	1
7962	7963	7964	1
7960	7965	7964	1
7960	7965	7969	1
7964	7965	7969	1
7965	7960	7968	1
7965	7964	7967	1
7973	7972	6951	1
7971	7970	7980	1
1064	1063	1074	1
1062	1063	1074	1
1078	1076	1074	1
1077	1076	1074	1
1064	1065	1072	1
1066	1065	1072	1
1072	5566	5556	1
1072	5566	5568	1
1063	1074	1075	1
1076	1074	1063	1
1063	1064	1065	1
1063	1064	1068	1
1063	1062	1067	1
1063	1062	1070	1
1065	1072	1073	1
1065	1072	5566	1
1065	1064	1068	1
1065	1066	1067	1
1065	1066	1069	1
1062	1063	1064	1
1064	1065	1066	1
1062	1067	1066	1
1062	1067	1071	1
1066	1067	1071	1
1067	1062	1070	1
1067	1066	1069	1
1076	1074	1075	1
1073	1072	5566	1
13487	13486	13497	1
13485	13486	13497	1
13497	10936	10926	1
13497	10936	10938	1
13487	13488	13495	1
13489	13488	13495	1
13495	8981	8971	1
13495	8981	8983	1
13486	13497	13498	1
13486	13497	10936	1
13486	13487	13488	1
13486	13487	13491	1
13486	13485	13490	1
13486	13485	13493	1
13488	13495	13496	1
13488	13495	8981	1
13488	13487	13491	1
13488	13489	13490	1
13488	13489	13492	1
13485	13486	13487	1
13487	13488	13489	1
13485	13490	13489	1
13485	13490	13494	1
13489	13490	13494	1
13490	13485	13493	1
13490	13489	13492	1
13498	13497	10936	1
13496	13495	8981	1
10678	10677	10688	1
10676	10677	10688	1
10688	3952	3945	1
10688	3952	3954	1
10678	10679	10686	1
10680	10679	10686	1
10686	10696	10690	1
10686	10696	10697	1
10677	10688	10689	1
10677	10688	3952	1
10677	10678	10679	1
10677	10678	10682	1
10677	10676	10681	1
10677	10676	10684	1
10679	10686	10687	1
10679	10686	10696	1
10679	10678	10682	1
10679	10680	10681	1
10679	10680	10683	1
10676	10677	10678	1
10678	10679	10680	1
10676	10681	10680	1
10676	10681	10685	1
10680	10681	10685	1
10681	10676	10684	1
10681	10680	10683	1
10689	10688	3952	1
10687	10686	10696	1
5601	5600	5611	1
5599	5600	5611	1
2442	2449	5611	1
2451	2449	5611	1
5601	5602	5609	1
5603	5602	5609	1
5609	5619	5613	1
5609	5619	5620	1
5600	5611	5612	1
2449	5611	5600	1
5600	5601	5602	1
5600	5601	5605	1
5600	5599	5604	1
5600	5599	5607	1
5602	5609	5610	1
5602	5609	5619	1
5602	5601	5605	1
5602	5603	5604	1
5602	5603	5606	1
5599	5600	5601	1
5601	5602	5603	1
5599	5604	5603	1
5599	5604	5608	1
5603	5604	5608	1
5604	5599	5607	1
5604	5603	5606	1
2449	5611	5612	1
5610	5609	5619	1
432	431	442	1
430	431	442	1
442	6335	6329	1
442	6335	6336	1
432	433	440	1
434	433	440	1
413	419	440	1
420	419	440	1
431	442	443	1
431	442	6335	1
431	432	433	1
431	432	436	1
431	430	435	1
431	430	438	1
433	440	441	1
419	440	433	1
433	432	436	1
433	434	435	1
433	434	437	1
430	431	432	1
432	433	434	1
430	435	434	1
430	435	439	1
434	435	439	1
435	430	438	1
435	434	437	1
443	442	6335	1
419	440	441	1
7132	7131	7142	1
7130	7131	7142	1
7142	7150	7144	1
7142	7150	7151	1
7132	7133	7140	1
7134	7133	7140	1
7140	8600	8593	1
7140	8600	8602	1
7131	7142	7143	1
7131	7142	7150	1
7131	7132	7133	1
7131	7132	7136	1
7131	7130	7135	1
7131	7130	7138	1
7133	7140	7141	1
7133	7140	8600	1
7133	7132	7136	1
7133	7134	7135	1
7133	7134	7137	1
7130	7131	7132	1
7132	7133	7134	1
7130	7135	7134	1
7130	7135	7139	1
7134	7135	7139	1
7135	7130	7138	1
7135	7134	7137	1
7143	7142	7150	1
7141	7140	8600	1
679	678	689	1
677	678	689	1
689	10536	10530	1
689	10536	10537	1
679	680	687	1
681	680	687	1
660	666	687	1
667	666	687	1
678	689	690	1
678	689	10536	1
678	679	680	1
678	679	683	1
678	677	682	1
678	677	685	1
680	687	688	1
666	687	680	1
680	679	683	1
680	681	682	1
680	681	684	1
677	678	679	1
679	680	681	1
677	682	681	1
677	682	686	1
681	682	686	1
682	677	685	1
682	681	684	1
690	689	10536	1
666	687	688	1
6680	6679	6690	1
6678	6679	6690	1
6690	8351	8344	1
6690	8351	8353	1
6680	6681	6688	1
6682	6681	6688	1
6688	6698	6692	1
6688	6698	6699	1
6679	6690	6691	1
6679	6690	8351	1
6679	6680	6681	1
6679	6680	6684	1
6679	6678	6683	1
6679	6678	6686	1
6681	6688	6689	1
6681	6688	6698	1
6681	6680	6684	1
6681	6682	6683	1
6681	6682	6685	1
6678	6679	6680	1
6680	6681	6682	1
6678	6683	6682	1
6678	6683	6687	1
6682	6683	6687	1
6683	6678	6686	1
6683	6682	6685	1
6691	6690	8351	1
6689	6688	6698	1
3467	3468	3475	1
3469	3468	3475	1
3475	9592	9585	1
3475	9592	9594	1
3467	3466	3477	1
3465	3466	3477	1
3468	3475	3476	1
3468	3475	9592	1
3466	3467	3468	1
3468	3467	3471	1
3468	3469	3470	1
3468	3469	3472	1
3466	3477	3479	1
3466	3477	3478	1
3466	3467	3471	1
3466	3465	3470	1
3466	3465	3473	1
3467	3468	3469	1
3465	3466	3467	1
3465	3470	3469	1
3469	3470	3474	1
3465	3470	3474	1
3470	3469	3472	1
3470	3465	3473	1
3476	3475	9592	1
3478	3477	3479	1
13039	13038	13049	1
13037	13038	13049	1
13049	7608	7598	1
13049	7608	7610	1
13039	13040	13047	1
13041	13040	13047	1
13047	10262	10255	1
13047	10262	10264	1
13038	13049	13050	1
13038	13049	7608	1
13038	13039	13040	1
13038	13039	13043	1
13038	13037	13042	1
13038	13037	13045	1
13040	13047	13048	1
13040	13047	10262	1
13040	13039	13043	1
13040	13041	13042	1
13040	13041	13044	1
13037	13038	13039	1
13039	13040	13041	1
13037	13042	13041	1
13037	13042	13046	1
13041	13042	13046	1
13042	13037	13045	1
13042	13041	13044	1
13050	13049	7608	1
13048	13047	10262	1
11401	11400	11411	1
11399	11400	11411	1
11411	7506	7496	1
11411	7506	7508	1
11401	11402	11409	1
11403	11402	11409	1
11409	4214	4204	1
11409	4214	4216	1
11400	11411	11412	1
11400	11411	7506	1
11400	11401	11402	1
11400	11401	11405	1
11400	11399	11404	1
11400	11399	11407	1
11402	11409	11410	1
11402	11409	4214	1
11402	11401	11405	1
11402	11403	11404	1
11402	11403	11406	1
11399	11400	11401	1
11401	11402	11403	1
11399	11404	11403	1
11399	11404	11408	1
11403	11404	11408	1
11404	11399	11407	1
11404	11403	11406	1
11412	11411	7506	1
11410	11409	4214	1
12745	12744	12755	1
12743	12744	12755	1
2535	2542	12755	1
2544	2542	12755	1
12745	12746	12753	1
12747	12746	12753	1
12753	6703	6696	1
12753	6703	6705	1
12744	12755	12756	1
2542	12755	12744	1
12744	12745	12746	1
12744	12745	12749	1
12744	12743	12748	1
12744	12743	12751	1
12746	12753	12754	1
12746	12753	6703	1
12746	12745	12749	1
12746	12747	12748	1
12746	12747	12750	1
12743	12744	12745	1
12745	12746	12747	1
12743	12748	12747	1
12743	12748	12752	1
12747	12748	12752	1
12748	12743	12751	1
12748	12747	12750	1
2542	12755	12756	1
12754	12753	6703	1
4016	4015	4026	1
4014	4015	4026	1
4026	6266	6259	1
4026	6266	6268	1
4016	4017	4024	1
4018	4017	4024	1
4024	4034	4028	1
4024	4034	4035	1
4015	4026	4027	1
4015	4026	6266	1
4015	4016	4017	1
4015	4016	4020	1
4015	4014	4019	1
4015	4014	4022	1
4017	4024	4025	1
4017	4024	4034	1
4017	4016	4020	1
4017	4018	4019	1
4017	4018	4021	1
4014	4015	4016	1
4016	4017	4018	1
4014	4019	4018	1
4014	4019	4023	1
4018	4019	4023	1
4019	4014	4022	1
4019	4018	4021	1
4027	4026	6266	1
4025	4024	4034	1
2286	2285	2296	1
2284	2285	2296	1
2300	2298	2296	1
2299	2298	2296	1
2286	2287	2294	1
2288	2287	2294	1
2294	10790	10780	1
2294	10790	10792	1
2285	2296	2297	1
2298	2296	2285	1
2285	2286	2287	1
2285	2286	2290	1
2285	2284	2289	1
2285	2284	2292	1
2287	2294	2295	1
2287	2294	10790	1
2287	2286	2290	1
2287	2288	2289	1
2287	2288	2291	1
2284	2285	2286	1
2286	2287	2288	1
2284	2289	2288	1
2284	2289	2293	1
2288	2289	2293	1
2289	2284	2292	1
2289	2288	2291	1
2298	2296	2297	1
2295	2294	10790	1
6622	6621	6632	1
6620	6621	6632	1
6632	6640	6634	1
6632	6640	6641	1
6622	6623	6630	1
6624	6623	6630	1
6630	8936	8929	1
6630	8936	8938	1
6621	6632	6633	1
6621	6632	6640	1
6621	6622	6623	1
6621	6622	6626	1
6621	6620	6625	1
6621	6620	6628	1
6623	6630	6631	1
6623	6630	8936	1
6623	6622	6626	1
6623	6624	6625	1
6623	6624	6627	1
6620	6621	6622	1
6622	6623	6624	1
6620	6625	6624	1
6620	6625	6629	1
6624	6625	6629	1
6625	6620	6628	1
6625	6624	6627	1
6633	6632	6640	1
6631	6630	8936	1
7540	7539	7550	1
7538	7539	7550	1
7550	7558	7552	1
7550	7558	7559	1
7540	7541	7548	1
7542	7541	7548	1
7548	4621	4611	1
7548	4621	4623	1
7539	7550	7551	1
7539	7550	7558	1
7539	7540	7541	1
7539	7540	7544	1
7539	7538	7543	1
7539	7538	7546	1
7541	7548	7549	1
7541	7548	4621	1
7541	7540	7544	1
7541	7542	7543	1
7541	7542	7545	1
7538	7539	7540	1
7540	7541	7542	1
7538	7543	7542	1
7538	7543	7547	1
7542	7543	7547	1
7543	7538	7546	1
7543	7542	7545	1
7551	7550	7558	1
7549	7548	4621	1
12801	12800	12811	1
12799	12800	12811	1
12811	6952	6942	1
12811	6952	6954	1
12801	12802	12809	1
12803	12802	12809	1
2504	2511	12809	1
2513	2511	12809	1
12800	12811	12812	1
12800	12811	6952	1
12800	12801	12802	1
12800	12801	12805	1
12800	12799	12804	1
12800	12799	12807	1
12802	12809	12810	1
2511	12809	12802	1
12802	12801	12805	1
12802	12803	12804	1
12802	12803	12806	1
12799	12800	12801	1
12801	12802	12803	1
12799	12804	12803	1
12799	12804	12808	1
12803	12804	12808	1
12804	12799	12807	1
12804	12803	12806	1
12812	12811	6952	1
2511	12809	12810	1
13011	13010	13021	1
13009	13010	13021	1
13021	9316	9306	1
13021	9316	9318	1
13011	13012	13019	1
13013	13012	13019	1
13019	7535	7525	1
13019	7535	7537	1
13010	13021	13022	1
13010	13021	9316	1
13010	13011	13012	1
13010	13011	13015	1
13010	13009	13014	1
13010	13009	13017	1
13012	13019	13020	1
13012	13019	7535	1
13012	13011	13015	1
13012	13013	13014	1
13012	13013	13016	1
13009	13010	13011	1
13011	13012	13013	1
13009	13014	13013	1
13009	13014	13018	1
13013	13014	13018	1
13014	13009	13017	1
13014	13013	13016	1
13022	13021	9316	1
13020	13019	7535	1
4423	4422	4433	1
4421	4422	4433	1
4433	4441	4435	1
4433	4441	4442	1
4423	4424	4431	1
4425	4424	4431	1
4431	6922	6915	1
4431	6922	6924	1
4422	4433	4434	1
4422	4433	4441	1
4422	4423	4424	1
4422	4423	4427	1
4422	4421	4426	1
4422	4421	4429	1
4424	4431	4432	1
4424	4431	6922	1
4424	4423	4427	1
4424	4425	4426	1
4424	4425	4428	1
4421	4422	4423	1
4423	4424	4425	1
4421	4426	4425	1
4421	4426	4430	1
4425	4426	4430	1
4426	4421	4429	1
4426	4425	4428	1
4434	4433	4441	1
4432	4431	6922	1
10766	10765	10776	1
10764	10765	10776	1
10776	10784	10778	1
10776	10784	10785	1
10766	10767	10774	1
10768	10767	10774	1
10774	5931	5924	1
10774	5931	5933	1
10765	10776	10777	1
10765	10776	10784	1
10765	10766	10767	1
10765	10766	10770	1
10765	10764	10769	1
10765	10764	10772	1
10767	10774	10775	1
10767	10774	5931	1
10767	10766	10770	1
10767	10768	10769	1
10767	10768	10771	1
10764	10765	10766	1
10766	10767	10768	1
10764	10769	10768	1
10764	10769	10773	1
10768	10769	10773	1
10769	10764	10772	1
10769	10768	10771	1
10777	10776	10784	1
10775	10774	5931	1
3692	3691	3702	1
3690	3691	3702	1
3692	3693	3700	1
3694	3693	3700	1
3700	10994	10987	1
3700	10994	10996	1
3691	3702	3703	1
3691	3702	3704	1
3691	3692	3693	1
3691	3692	3696	1
3691	3690	3695	1
3691	3690	3698	1
3693	3700	3701	1
3693	3700	10994	1
3693	3692	3696	1
3693	3694	3695	1
3693	3694	3697	1
3690	3691	3692	1
3692	3693	3694	1
3690	3695	3694	1
3690	3695	3699	1
3694	3695	3699	1
3695	3690	3698	1
3695	3694	3697	1
3703	3702	3704	1
3701	3700	10994	1
10912	10911	10922	1
10910	10911	10922	1
10922	10906	10899	1
10922	10906	10908	1
10912	10913	10920	1
10914	10913	10920	1
10920	10930	10924	1
10920	10930	10931	1
10911	10922	10923	1
10911	10922	10906	1
10911	10912	10913	1
10911	10912	10916	1
10911	10910	10915	1
10911	10910	10918	1
10913	10920	10921	1
10913	10920	10930	1
10913	10912	10916	1
10913	10914	10915	1
10913	10914	10917	1
10910	10911	10912	1
10912	10913	10914	1
10910	10915	10914	1
10910	10915	10919	1
10914	10915	10919	1
10915	10910	10918	1
10915	10914	10917	1
10923	10922	10906	1
10921	10920	10930	1
3527	3528	3535	1
3529	3528	3535	1
3535	9769	9759	1
3535	9769	9771	1
3527	3526	3537	1
3525	3526	3537	1
3528	3535	3536	1
3528	3535	9769	1
3526	3527	3528	1
3528	3527	3531	1
3528	3529	3530	1
3528	3529	3532	1
3526	3537	3538	1
3526	3537	3539	1
3526	3527	3531	1
3526	3525	3530	1
3526	3525	3533	1
3527	3528	3529	1
3525	3526	3527	1
3525	3530	3529	1
3529	3530	3534	1
3525	3530	3534	1
3530	3529	3532	1
3530	3525	3533	1
3536	3535	9769	1
3538	3537	3539	1
12997	12996	13007	1
12995	12996	13007	1
13007	7505	7498	1
13007	7505	7507	1
12997	12998	13005	1
12999	12998	13005	1
13005	9504	9497	1
13005	9504	9506	1
12996	13007	13008	1
12996	13007	7505	1
12996	12997	12998	1
12996	12997	13001	1
12996	12995	13000	1
12996	12995	13003	1
12998	13005	13006	1
12998	13005	9504	1
12998	12997	13001	1
12998	12999	13000	1
12998	12999	13002	1
12995	12996	12997	1
12997	12998	12999	1
12995	13000	12999	1
12995	13000	13004	1
12999	13000	13004	1
13000	12995	13003	1
13000	12999	13002	1
13008	13007	7505	1
13006	13005	9504	1
10007	10006	10017	1
10005	10006	10017	1
10017	10025	10019	1
10017	10025	10026	1
10007	10008	10015	1
10009	10008	10015	1
10015	3982	3972	1
10015	3982	3984	1
10006	10017	10018	1
10006	10017	10025	1
10006	10007	10008	1
10006	10007	10011	1
10006	10005	10010	1
10006	10005	10013	1
10008	10015	10016	1
10008	10015	3982	1
10008	10007	10011	1
10008	10009	10010	1
10008	10009	10012	1
10005	10006	10007	1
10007	10008	10009	1
10005	10010	10009	1
10005	10010	10014	1
10009	10010	10014	1
10010	10005	10013	1
10010	10009	10012	1
10018	10017	10025	1
10016	10015	3982	1
11331	11330	11341	1
11329	11330	11341	1
11341	4126	4119	1
11341	4126	4128	1
11331	11332	11339	1
11333	11332	11339	1
11339	10263	10253	1
11339	10263	10265	1
11330	11341	11342	1
11330	11341	4126	1
11330	11331	11332	1
11330	11331	11335	1
11330	11329	11334	1
11330	11329	11337	1
11332	11339	11340	1
11332	11339	10263	1
11332	11331	11335	1
11332	11333	11334	1
11332	11333	11336	1
11329	11330	11331	1
11331	11332	11333	1
11329	11334	11333	1
11329	11334	11338	1
11333	11334	11338	1
11334	11329	11337	1
11334	11333	11336	1
11342	11341	4126	1
11340	11339	10263	1
3437	3438	3445	1
3439	3438	3445	1
3445	9533	9526	1
3445	9533	9535	1
3437	3436	3447	1
3435	3436	3447	1
3438	3445	3446	1
3438	3445	9533	1
3436	3437	3438	1
3438	3437	3441	1
3438	3439	3440	1
3438	3439	3442	1
3436	3447	3449	1
3436	3447	3448	1
3436	3437	3441	1
3436	3435	3440	1
3436	3435	3443	1
3437	3438	3439	1
3435	3436	3437	1
3435	3440	3439	1
3439	3440	3444	1
3435	3440	3444	1
3440	3439	3442	1
3440	3435	3443	1
3446	3445	9533	1
3449	3447	3448	1
9978	9977	9988	1
9976	9977	9988	1
9988	9996	9990	1
9988	9996	9997	1
9978	9979	9986	1
9980	9979	9986	1
9986	5332	5325	1
9986	5332	5334	1
9977	9988	9989	1
9977	9988	9996	1
9977	9978	9979	1
9977	9978	9982	1
9977	9976	9981	1
9977	9976	9984	1
9979	9986	9987	1
9979	9986	5332	1
9979	9978	9982	1
9979	9980	9981	1
9979	9980	9983	1
9976	9977	9978	1
9978	9979	9980	1
9976	9981	9980	1
9976	9981	9985	1
9980	9981	9985	1
9981	9976	9984	1
9981	9980	9983	1
9989	9988	9996	1
9987	9986	5332	1
4960	4959	4970	1
4958	4959	4970	1
4970	4978	4972	1
4970	4978	4979	1
4960	4961	4968	1
4962	4961	4968	1
4968	6014	6008	1
4968	6014	6015	1
4959	4970	4971	1
4959	4970	4978	1
4959	4960	4961	1
4959	4960	4964	1
4959	4958	4963	1
4959	4958	4966	1
4961	4968	4969	1
4961	4968	6014	1
4961	4960	4964	1
4961	4962	4963	1
4961	4962	4965	1
4958	4959	4960	1
4960	4961	4962	1
4958	4963	4962	1
4958	4963	4967	1
4962	4963	4967	1
4963	4958	4966	1
4963	4962	4965	1
4971	4970	4978	1
4969	4968	6014	1
2612	2611	2622	1
2610	2611	2622	1
2612	2613	2620	1
2614	2613	2620	1
2620	3860	3854	1
2620	3860	3861	1
2611	2622	2623	1
2611	2622	2624	1
2611	2612	2613	1
2611	2612	2616	1
2611	2610	2615	1
2611	2610	2618	1
2613	2620	2621	1
2613	2620	3860	1
2613	2612	2616	1
2613	2614	2615	1
2613	2614	2617	1
2610	2611	2612	1
2612	2613	2614	1
2610	2615	2614	1
2610	2615	2619	1
2614	2615	2619	1
2615	2610	2618	1
2615	2614	2617	1
2623	2622	2624	1
2621	2620	3860	1
3062	3063	3070	1
3064	3063	3070	1
3070	7462	7452	1
3070	7462	7464	1
3062	3061	3072	1
3060	3061	3072	1
3063	3070	3071	1
3063	3070	7462	1
3061	3062	3063	1
3063	3062	3066	1
3063	3064	3065	1
3063	3064	3067	1
3061	3072	3073	1
3061	3072	3074	1
3061	3062	3066	1
3061	3060	3065	1
3061	3060	3068	1
3062	3063	3064	1
3060	3061	3062	1
3060	3065	3064	1
3064	3065	3069	1
3060	3065	3069	1
3065	3064	3067	1
3065	3060	3068	1
3071	3070	7462	1
3073	3072	3074	1
6884	6883	6894	1
6882	6883	6894	1
6894	6704	6694	1
6894	6704	6706	1
6884	6885	6892	1
6886	6885	6892	1
6892	6902	6896	1
6892	6902	6903	1
6883	6894	6895	1
6883	6894	6704	1
6883	6884	6885	1
6883	6884	6888	1
6883	6882	6887	1
6883	6882	6890	1
6885	6892	6893	1
6885	6892	6902	1
6885	6884	6888	1
6885	6886	6887	1
6885	6886	6889	1
6882	6883	6884	1
6884	6885	6886	1
6882	6887	6886	1
6882	6887	6891	1
6886	6887	6891	1
6887	6882	6890	1
6887	6886	6889	1
6895	6894	6704	1
6893	6892	6902	1
11975	11974	11985	1
11973	11974	11985	1
11985	5216	5209	1
11985	5216	5218	1
11975	11976	11983	1
11977	11976	11983	1
11983	8762	8752	1
11983	8762	8764	1
11974	11985	11986	1
11974	11985	5216	1
11974	11975	11976	1
11974	11975	11979	1
11974	11973	11978	1
11974	11973	11981	1
11976	11983	11984	1
11976	11983	8762	1
11976	11975	11979	1
11976	11977	11978	1
11976	11977	11980	1
11973	11974	11975	1
11975	11976	11977	1
11973	11978	11977	1
11973	11978	11982	1
11977	11978	11982	1
11978	11973	11981	1
11978	11977	11980	1
11986	11985	5216	1
11984	11983	8762	1
12031	12030	12041	1
12029	12030	12041	1
12041	8058	8051	1
12041	8058	8060	1
12031	12032	12039	1
12033	12032	12039	1
12039	5435	5425	1
12039	5435	5437	1
12030	12041	12042	1
12030	12041	8058	1
12030	12031	12032	1
12030	12031	12035	1
12030	12029	12034	1
12030	12029	12037	1
12032	12039	12040	1
12032	12039	5435	1
12032	12031	12035	1
12032	12033	12034	1
12032	12033	12036	1
12029	12030	12031	1
12031	12032	12033	1
12029	12034	12033	1
12029	12034	12038	1
12033	12034	12038	1
12034	12029	12037	1
12034	12033	12036	1
12042	12041	8058	1
12040	12039	5435	1
586	585	596	1
584	585	596	1
596	10448	10442	1
596	10448	10449	1
586	587	594	1
588	587	594	1
567	573	594	1
574	573	594	1
585	596	597	1
585	596	10448	1
585	586	587	1
585	586	590	1
585	584	589	1
585	584	592	1
587	594	595	1
573	594	587	1
587	586	590	1
587	588	589	1
587	588	591	1
584	585	586	1
586	587	588	1
584	589	588	1
584	589	593	1
588	589	593	1
589	584	592	1
589	588	591	1
597	596	10448	1
573	594	595	1
13235	13234	13245	1
13233	13234	13245	1
13245	9667	9657	1
13245	9667	9669	1
13235	13236	13243	1
13237	13236	13243	1
13243	8189	8182	1
13243	8189	8191	1
13234	13245	13246	1
13234	13245	9667	1
13234	13235	13236	1
13234	13235	13239	1
13234	13233	13238	1
13234	13233	13241	1
13236	13243	13244	1
13236	13243	8189	1
13236	13235	13239	1
13236	13237	13238	1
13236	13237	13240	1
13233	13234	13235	1
13235	13236	13237	1
13233	13238	13237	1
13233	13238	13242	1
13237	13238	13242	1
13238	13233	13241	1
13238	13237	13240	1
13246	13245	9667	1
13244	13243	8189	1
12101	12100	12111	1
12099	12100	12111	1
12111	10556	10549	1
12111	10556	10558	1
12101	12102	12109	1
12103	12102	12109	1
12109	5536	5529	1
12109	5536	5538	1
12100	12111	12112	1
12100	12111	10556	1
12100	12101	12102	1
12100	12101	12105	1
12100	12099	12104	1
12100	12099	12107	1
12102	12109	12110	1
12102	12109	5536	1
12102	12101	12105	1
12102	12103	12104	1
12102	12103	12106	1
12099	12100	12101	1
12101	12102	12103	1
12099	12104	12103	1
12099	12104	12108	1
12103	12104	12108	1
12104	12099	12107	1
12104	12103	12106	1
12112	12111	10556	1
12110	12109	5536	1
6433	6432	6443	1
6431	6432	6443	1
1776	1783	6443	1
1785	1783	6443	1
6433	6434	6441	1
6435	6434	6441	1
6441	6451	6445	1
6441	6451	6452	1
6432	6443	6444	1
1783	6443	6432	1
6432	6433	6434	1
6432	6433	6437	1
6432	6431	6436	1
6432	6431	6439	1
6434	6441	6442	1
6434	6441	6451	1
6434	6433	6437	1
6434	6435	6436	1
6434	6435	6438	1
6431	6432	6433	1
6433	6434	6435	1
6431	6436	6435	1
6431	6436	6440	1
6435	6436	6440	1
6436	6431	6439	1
6436	6435	6438	1
1783	6443	6444	1
6442	6441	6451	1
3317	3316	3327	1
3315	3316	3327	1
3317	3318	3325	1
3319	3318	3325	1
3325	9019	9013	1
3325	9019	9020	1
3316	3327	3329	1
3316	3327	3328	1
3316	3317	3318	1
3316	3317	3321	1
3316	3315	3320	1
3316	3315	3323	1
3318	3325	3326	1
3318	3325	9019	1
3318	3317	3321	1
3318	3319	3320	1
3318	3319	3322	1
3315	3316	3317	1
3317	3318	3319	1
3315	3320	3319	1
3315	3320	3324	1
3319	3320	3324	1
3320	3315	3323	1
3320	3319	3322	1
3329	3327	3328	1
3326	3325	9019	1
3197	3196	3207	1
3195	3196	3207	1
3197	3198	3205	1
3199	3198	3205	1
3205	8556	8549	1
3205	8556	8558	1
3196	3207	3209	1
3196	3207	3208	1
3196	3197	3198	1
3196	3197	3201	1
3196	3195	3200	1
3196	3195	3203	1
3198	3205	3206	1
3198	3205	8556	1
3198	3197	3201	1
3198	3199	3200	1
3198	3199	3202	1
3195	3196	3197	1
3197	3198	3199	1
3195	3200	3199	1
3195	3200	3204	1
3199	3200	3204	1
3200	3195	3203	1
3200	3199	3202	1
3209	3207	3208	1
3206	3205	8556	1
11723	11722	11733	1
11721	11722	11733	1
11733	8323	8313	1
11733	8323	8325	1
11723	11724	11731	1
11725	11724	11731	1
11731	4765	4758	1
11731	4765	4767	1
11722	11733	11734	1
11722	11733	8323	1
11722	11723	11724	1
11722	11723	11727	1
11722	11721	11726	1
11722	11721	11729	1
11724	11731	11732	1
11724	11731	4765	1
11724	11723	11727	1
11724	11725	11726	1
11724	11725	11728	1
11721	11722	11723	1
11723	11724	11725	1
11721	11726	11725	1
11721	11726	11730	1
11725	11726	11730	1
11726	11721	11729	1
11726	11725	11728	1
11734	11733	8323	1
11732	11731	4765	1
12955	12956	12963	1
12957	12956	12963	1
12963	7388	7381	1
12963	7388	7390	1
12955	12954	12965	1
12953	12954	12965	1
12965	8702	8695	1
12965	8702	8704	1
12956	12963	12964	1
12956	12963	7388	1
12954	12955	12956	1
12956	12955	12959	1
12956	12957	12958	1
12956	12957	12960	1
12954	12965	12966	1
12954	12965	8702	1
12954	12955	12959	1
12954	12953	12958	1
12954	12953	12961	1
12955	12956	12957	1
12953	12954	12955	1
12953	12958	12957	1
12957	12958	12962	1
12953	12958	12962	1
12958	12957	12960	1
12958	12953	12961	1
12964	12963	7388	1
12966	12965	8702	1
12353	12352	12363	1
12351	12352	12363	1
12363	5872	5865	1
12363	5872	5874	1
12353	12354	12361	1
12355	12354	12361	1
12361	8645	8635	1
12361	8645	8647	1
12352	12363	12364	1
12352	12363	5872	1
12352	12353	12354	1
12352	12353	12357	1
12352	12351	12356	1
12352	12351	12359	1
12354	12361	12362	1
12354	12361	8645	1
12354	12353	12357	1
12354	12355	12356	1
12354	12355	12358	1
12351	12352	12353	1
12353	12354	12355	1
12351	12356	12355	1
12351	12356	12360	1
12355	12356	12360	1
12356	12351	12359	1
12356	12355	12358	1
12364	12363	5872	1
12362	12361	8645	1
12381	12380	12391	1
12379	12380	12391	1
12391	5901	5894	1
12391	5901	5903	1
12381	12382	12389	1
12383	12382	12389	1
12389	10307	10297	1
12389	10307	10309	1
12380	12391	12392	1
12380	12391	5901	1
12380	12381	12382	1
12380	12381	12385	1
12380	12379	12384	1
12380	12379	12387	1
12382	12389	12390	1
12382	12389	10307	1
12382	12381	12385	1
12382	12383	12384	1
12382	12383	12386	1
12379	12380	12381	1
12381	12382	12383	1
12379	12384	12383	1
12379	12384	12388	1
12383	12384	12388	1
12384	12379	12387	1
12384	12383	12386	1
12392	12391	5901	1
12390	12389	10307	1
3392	3393	3400	1
3394	3393	3400	1
3400	9170	9163	1
3400	9170	9172	1
3392	3391	3402	1
3390	3391	3402	1
3393	3400	3401	1
3393	3400	9170	1
3391	3392	3393	1
3393	3392	3396	1
3393	3394	3395	1
3393	3394	3397	1
3391	3402	3403	1
3391	3402	3404	1
3391	3392	3396	1
3391	3390	3395	1
3391	3390	3398	1
3392	3393	3394	1
3390	3391	3392	1
3390	3395	3394	1
3394	3395	3399	1
3390	3395	3399	1
3395	3394	3397	1
3395	3390	3398	1
3401	3400	9170	1
3403	3402	3404	1
9234	9233	9244	1
9232	9233	9244	1
9244	9252	9246	1
9244	9252	9253	1
9234	9235	9242	1
9236	9235	9242	1
9242	9894	9888	1
9242	9894	9895	1
9233	9244	9245	1
9233	9244	9252	1
9233	9234	9235	1
9233	9234	9238	1
9233	9232	9237	1
9233	9232	9240	1
9235	9242	9243	1
9235	9242	9894	1
9235	9234	9238	1
9235	9236	9237	1
9235	9236	9239	1
9232	9233	9234	1
9234	9235	9236	1
9232	9237	9236	1
9232	9237	9241	1
9236	9237	9241	1
9237	9232	9240	1
9237	9236	9239	1
9245	9244	9252	1
9243	9242	9894	1
9452	9451	9462	1
9450	9451	9462	1
9462	8381	8374	1
9462	8381	8383	1
9452	9453	9460	1
9454	9453	9460	1
9460	9470	9464	1
9460	9470	9471	1
9451	9462	9463	1
9451	9462	8381	1
9451	9452	9453	1
9451	9452	9456	1
9451	9450	9455	1
9451	9450	9458	1
9453	9460	9461	1
9453	9460	9470	1
9453	9452	9456	1
9453	9454	9455	1
9453	9454	9457	1
9450	9451	9452	1
9452	9453	9454	1
9450	9455	9454	1
9450	9455	9459	1
9454	9455	9459	1
9455	9450	9458	1
9455	9454	9457	1
9463	9462	8381	1
9461	9460	9470	1
12171	12170	12181	1
12169	12170	12181	1
12181	5595	5588	1
12181	5595	5597	1
12171	12172	12179	1
12173	12172	12179	1
12179	8278	8271	1
12179	8278	8280	1
12170	12181	12182	1
12170	12181	5595	1
12170	12171	12172	1
12170	12171	12175	1
12170	12169	12174	1
12170	12169	12177	1
12172	12179	12180	1
12172	12179	8278	1
12172	12171	12175	1
12172	12173	12174	1
12172	12173	12176	1
12169	12170	12171	1
12171	12172	12173	1
12169	12174	12173	1
12169	12174	12178	1
12173	12174	12178	1
12174	12169	12177	1
12174	12173	12176	1
12182	12181	5595	1
12180	12179	8278	1
5004	5003	5014	1
5002	5003	5014	1
5014	10453	10446	1
5014	10453	10455	1
5004	5005	5012	1
5006	5005	5012	1
5012	5022	5016	1
5012	5022	5023	1
5003	5014	5015	1
5003	5014	10453	1
5003	5004	5005	1
5003	5004	5008	1
5003	5002	5007	1
5003	5002	5010	1
5005	5012	5013	1
5005	5012	5022	1
5005	5004	5008	1
5005	5006	5007	1
5005	5006	5009	1
5002	5003	5004	1
5004	5005	5006	1
5002	5007	5006	1
5002	5007	5011	1
5006	5007	5011	1
5007	5002	5010	1
5007	5006	5009	1
5015	5014	10453	1
5013	5012	5022	1
2008	2007	2018	1
2006	2007	2018	1
1989	1995	2018	1
1996	1995	2018	1
2008	2009	2016	1
2010	2009	2016	1
2016	4504	4497	1
2016	4504	4506	1
2007	2018	2019	1
1995	2018	2007	1
2007	2008	2009	1
2007	2008	2012	1
2007	2006	2011	1
2007	2006	2014	1
2009	2016	2017	1
2009	2016	4504	1
2009	2008	2012	1
2009	2010	2011	1
2009	2010	2013	1
2006	2007	2008	1
2008	2009	2010	1
2006	2011	2010	1
2006	2011	2015	1
2010	2011	2015	1
2011	2006	2014	1
2011	2010	2013	1
1995	2018	2019	1
2017	2016	4504	1
7802	7801	7812	1
7800	7801	7812	1
7812	6907	6900	1
7812	6907	6909	1
7802	7803	7810	1
7804	7803	7810	1
7810	7820	7814	1
7810	7820	7821	1
7801	7812	7813	1
7801	7812	6907	1
7801	7802	7803	1
7801	7802	7806	1
7801	7800	7805	1
7801	7800	7808	1
7803	7810	7811	1
7803	7810	7820	1
7803	7802	7806	1
7803	7804	7805	1
7803	7804	7807	1
7800	7801	7802	1
7802	7803	7804	1
7800	7805	7804	1
7800	7805	7809	1
7804	7805	7809	1
7805	7800	7808	1
7805	7804	7807	1
7813	7812	6907	1
7811	7810	7820	1
6593	6592	6603	1
6591	6592	6603	1
6603	9763	9757	1
6603	9763	9764	1
6593	6594	6601	1
6595	6594	6601	1
6601	6611	6605	1
6601	6611	6612	1
6592	6603	6604	1
6592	6603	9763	1
6592	6593	6594	1
6592	6593	6597	1
6592	6591	6596	1
6592	6591	6599	1
6594	6601	6602	1
6594	6601	6611	1
6594	6593	6597	1
6594	6595	6596	1
6594	6595	6598	1
6591	6592	6593	1
6593	6594	6595	1
6591	6596	6595	1
6591	6596	6600	1
6595	6596	6600	1
6596	6591	6599	1
6596	6595	6598	1
6604	6603	9763	1
6602	6601	6611	1
5513	5512	5523	1
5511	5512	5523	1
5523	5531	5525	1
5523	5531	5532	1
5513	5514	5521	1
5515	5514	5521	1
5521	8673	8666	1
5521	8673	8675	1
5512	5523	5524	1
5512	5523	5531	1
5512	5513	5514	1
5512	5513	5517	1
5512	5511	5516	1
5512	5511	5519	1
5514	5521	5522	1
5514	5521	8673	1
5514	5513	5517	1
5514	5515	5516	1
5514	5515	5518	1
5511	5512	5513	1
5513	5514	5515	1
5511	5516	5515	1
5511	5516	5520	1
5515	5516	5520	1
5516	5511	5519	1
5516	5515	5518	1
5524	5523	5531	1
5522	5521	8673	1
8708	8707	8718	1
8706	8707	8718	1
8718	3981	3974	1
8718	3981	3983	1
8708	8709	8716	1
8710	8709	8716	1
8716	8726	8720	1
8716	8726	8727	1
8707	8718	8719	1
8707	8718	3981	1
8707	8708	8709	1
8707	8708	8712	1
8707	8706	8711	1
8707	8706	8714	1
8709	8716	8717	1
8709	8716	8726	1
8709	8708	8712	1
8709	8710	8711	1
8709	8710	8713	1
8706	8707	8708	1
8708	8709	8710	1
8706	8711	8710	1
8706	8711	8715	1
8710	8711	8715	1
8711	8706	8714	1
8711	8710	8713	1
8719	8718	3981	1
8717	8716	8726	1
12003	12002	12013	1
12001	12002	12013	1
12013	7287	7277	1
12013	7287	7289	1
12003	12004	12011	1
12005	12004	12011	1
12011	5347	5340	1
12011	5347	5349	1
12002	12013	12014	1
12002	12013	7287	1
12002	12003	12004	1
12002	12003	12007	1
12002	12001	12006	1
12002	12001	12009	1
12004	12011	12012	1
12004	12011	5347	1
12004	12003	12007	1
12004	12005	12006	1
12004	12005	12008	1
12001	12002	12003	1
12003	12004	12005	1
12001	12006	12005	1
12001	12006	12010	1
12005	12006	12010	1
12006	12001	12009	1
12006	12005	12008	1
12014	12013	7287	1
12012	12011	5347	1
13711	13710	13721	1
13709	13710	13721	1
2226	2233	13721	1
2235	2233	13721	1
13711	13712	13719	1
13713	13712	13719	1
13719	10615	10605	1
13719	10615	10617	1
13710	13721	13722	1
2233	13721	13710	1
13710	13711	13712	1
13710	13711	13715	1
13710	13709	13714	1
13710	13709	13717	1
13712	13719	13720	1
13712	13719	10615	1
13712	13711	13715	1
13712	13713	13714	1
13712	13713	13716	1
13709	13710	13711	1
13711	13712	13713	1
13709	13714	13713	1
13709	13714	13718	1
13713	13714	13718	1
13714	13709	13717	1
13714	13713	13716	1
2233	13721	13722	1
13720	13719	10615	1
11639	11638	11649	1
11637	11638	11649	1
11649	4650	4640	1
11649	4650	4652	1
11639	11640	11647	1
11641	11640	11647	1
324	331	11647	1
333	331	11647	1
11638	11649	11650	1
11638	11649	4650	1
11638	11639	11640	1
11638	11639	11643	1
11638	11637	11642	1
11638	11637	11645	1
11640	11647	11648	1
331	11647	11640	1
11640	11639	11643	1
11640	11641	11642	1
11640	11641	11644	1
11637	11638	11639	1
11639	11640	11641	1
11637	11642	11641	1
11637	11642	11646	1
11641	11642	11646	1
11642	11637	11645	1
11642	11641	11644	1
11650	11649	4650	1
331	11647	11648	1
11443	11442	11453	1
11441	11442	11453	1
11453	4795	4785	1
11453	4795	4797	1
11443	11444	11451	1
11445	11444	11451	1
11451	4271	4264	1
11451	4271	4273	1
11442	11453	11454	1
11442	11453	4795	1
11442	11443	11444	1
11442	11443	11447	1
11442	11441	11446	1
11442	11441	11449	1
11444	11451	11452	1
11444	11451	4271	1
11444	11443	11447	1
11444	11445	11446	1
11444	11445	11448	1
11441	11442	11443	1
11443	11444	11445	1
11441	11446	11445	1
11441	11446	11450	1
11445	11446	11450	1
11446	11441	11449	1
11446	11445	11448	1
11454	11453	4795	1
11452	11451	4271	1
13599	13598	13609	1
13597	13598	13609	1
13609	10542	10532	1
13609	10542	10544	1
13599	13600	13607	1
13601	13600	13607	1
13607	9856	9846	1
13607	9856	9858	1
13598	13609	13610	1
13598	13609	10542	1
13598	13599	13600	1
13598	13599	13603	1
13598	13597	13602	1
13598	13597	13605	1
13600	13607	13608	1
13600	13607	9856	1
13600	13599	13603	1
13600	13601	13602	1
13600	13601	13604	1
13597	13598	13599	1
13599	13600	13601	1
13597	13602	13601	1
13597	13602	13606	1
13601	13602	13606	1
13602	13597	13605	1
13602	13601	13604	1
13610	13609	10542	1
13608	13607	9856	1
10620	10619	10630	1
10618	10619	10630	1
10630	9534	9524	1
10630	9534	9536	1
10620	10621	10628	1
10622	10621	10628	1
10628	10638	10632	1
10628	10638	10639	1
10619	10630	10631	1
10619	10630	9534	1
10619	10620	10621	1
10619	10620	10624	1
10619	10618	10623	1
10619	10618	10626	1
10621	10628	10629	1
10621	10628	10638	1
10621	10620	10624	1
10621	10622	10623	1
10621	10622	10625	1
10618	10619	10620	1
10620	10621	10622	1
10618	10623	10622	1
10618	10623	10627	1
10622	10623	10627	1
10623	10618	10626	1
10623	10622	10625	1
10631	10630	9534	1
10629	10628	10638	1
4350	4349	4360	1
4348	4349	4360	1
4360	11113	11103	1
4360	11113	11115	1
4350	4351	4358	1
4352	4351	4358	1
4358	4368	4362	1
4358	4368	4369	1
4349	4360	4361	1
4349	4360	11113	1
4349	4350	4351	1
4349	4350	4354	1
4349	4348	4353	1
4349	4348	4356	1
4351	4358	4359	1
4351	4358	4368	1
4351	4350	4354	1
4351	4352	4353	1
4351	4352	4355	1
4348	4349	4350	1
4350	4351	4352	1
4348	4353	4352	1
4348	4353	4357	1
4352	4353	4357	1
4353	4348	4356	1
4353	4352	4355	1
4361	4360	11113	1
4359	4358	4368	1
2488	2487	2498	1
2486	2487	2498	1
2469	2475	2498	1
2476	2475	2498	1
2488	2489	2496	1
2490	2489	2496	1
2496	4592	4582	1
2496	4592	4594	1
2487	2498	2499	1
2475	2498	2487	1
2487	2488	2489	1
2487	2488	2492	1
2487	2486	2491	1
2487	2486	2494	1
2489	2496	2497	1
2489	2496	4592	1
2489	2488	2492	1
2489	2490	2491	1
2489	2490	2493	1
2486	2487	2488	1
2488	2489	2490	1
2486	2491	2490	1
2486	2491	2495	1
2490	2491	2495	1
2491	2486	2494	1
2491	2490	2493	1
2475	2498	2499	1
2497	2496	4592	1
12689	12688	12699	1
12687	12688	12699	1
12699	6514	6507	1
12699	6514	6516	1
12689	12690	12697	1
12691	12690	12697	1
12697	7491	7481	1
12697	7491	7493	1
12688	12699	12700	1
12688	12699	6514	1
12688	12689	12690	1
12688	12689	12693	1
12688	12687	12692	1
12688	12687	12695	1
12690	12697	12698	1
12690	12697	7491	1
12690	12689	12693	1
12690	12691	12692	1
12690	12691	12694	1
12687	12688	12689	1
12689	12690	12691	1
12687	12692	12691	1
12687	12692	12696	1
12691	12692	12696	1
12692	12687	12695	1
12692	12691	12694	1
12700	12699	6514	1
12698	12697	7491	1
865	864	875	1
863	864	875	1
846	852	875	1
853	852	875	1
865	866	873	1
867	866	873	1
873	6276	6270	1
873	6276	6277	1
864	875	876	1
852	875	864	1
864	865	866	1
864	865	869	1
864	863	868	1
864	863	871	1
866	873	874	1
866	873	6276	1
866	865	869	1
866	867	868	1
866	867	870	1
863	864	865	1
865	866	867	1
863	868	867	1
863	868	872	1
867	868	872	1
868	863	871	1
868	867	870	1
852	875	876	1
874	873	6276	1
5353	5352	5363	1
5351	5352	5363	1
5363	10060	10050	1
5363	10060	10062	1
5353	5354	5361	1
5355	5354	5361	1
5361	5371	5365	1
5361	5371	5372	1
5352	5363	5364	1
5352	5363	10060	1
5352	5353	5354	1
5352	5353	5357	1
5352	5351	5356	1
5352	5351	5359	1
5354	5361	5362	1
5354	5361	5371	1
5354	5353	5357	1
5354	5355	5356	1
5354	5355	5358	1
5351	5352	5353	1
5353	5354	5355	1
5351	5356	5355	1
5351	5356	5360	1
5355	5356	5360	1
5356	5351	5359	1
5356	5355	5358	1
5364	5363	10060	1
5362	5361	5371	1
5849	5850	5857	1
5851	5850	5857	1
5857	5867	5861	1
5857	5867	5868	1
5849	5848	5859	1
5847	5848	5859	1
5859	5926	5920	1
5859	5926	5927	1
5850	5857	5858	1
5850	5857	5867	1
5850	5849	5848	1
5850	5849	5853	1
5850	5851	5852	1
5850	5851	5854	1
5848	5859	5860	1
5848	5859	5926	1
5848	5849	5853	1
5848	5847	5852	1
5848	5847	5855	1
5851	5850	5849	1
5849	5848	5847	1
5851	5852	5847	1
5851	5852	5856	1
5847	5852	5856	1
5852	5851	5854	1
5852	5847	5855	1
5858	5857	5867	1
5860	5859	5926	1
11317	11316	11327	1
11315	11316	11327	1
11327	6718	6711	1
11327	6718	6720	1
11317	11318	11325	1
11319	11318	11325	1
11325	4098	4088	1
11325	4098	4100	1
11316	11327	11328	1
11316	11327	6718	1
11316	11317	11318	1
11316	11317	11321	1
11316	11315	11320	1
11316	11315	11323	1
11318	11325	11326	1
11318	11325	4098	1
11318	11317	11321	1
11318	11319	11320	1
11318	11319	11322	1
11315	11316	11317	1
11317	11318	11319	1
11315	11320	11319	1
11315	11320	11324	1
11319	11320	11324	1
11320	11315	11323	1
11320	11319	11322	1
11328	11327	6718	1
11326	11325	4098	1
3422	3421	3432	1
3420	3421	3432	1
3422	3423	3430	1
3424	3423	3430	1
3430	9446	9439	1
3430	9446	9448	1
3421	3432	3433	1
3421	3432	3434	1
3421	3422	3423	1
3421	3422	3426	1
3421	3420	3425	1
3421	3420	3428	1
3423	3430	3431	1
3423	3430	9446	1
3423	3422	3426	1
3423	3424	3425	1
3423	3424	3427	1
3420	3421	3422	1
3422	3423	3424	1
3420	3425	3424	1
3420	3425	3429	1
3424	3425	3429	1
3425	3420	3428	1
3425	3424	3427	1
3433	3432	3434	1
3431	3430	9446	1
2131	2130	2141	1
2129	2130	2141	1
2112	2118	2141	1
2119	2118	2141	1
2131	2132	2139	1
2133	2132	2139	1
2139	9257	9250	1
2139	9257	9259	1
2130	2141	2142	1
2118	2141	2130	1
2130	2131	2132	1
2130	2131	2135	1
2130	2129	2134	1
2130	2129	2137	1
2132	2139	2140	1
2132	2139	9257	1
2132	2131	2135	1
2132	2133	2134	1
2132	2133	2136	1
2129	2130	2131	1
2131	2132	2133	1
2129	2134	2133	1
2129	2134	2138	1
2133	2134	2138	1
2134	2129	2137	1
2134	2133	2136	1
2118	2141	2142	1
2140	2139	9257	1
3737	3736	3747	1
3735	3736	3747	1
3737	3738	3745	1
3739	3738	3745	1
3745	11157	11147	1
3745	11157	11159	1
3736	3747	3749	1
3736	3747	3748	1
3736	3737	3738	1
3736	3737	3741	1
3736	3735	3740	1
3736	3735	3743	1
3738	3745	3746	1
3738	3745	11157	1
3738	3737	3741	1
3738	3739	3740	1
3738	3739	3742	1
3735	3736	3737	1
3737	3738	3739	1
3735	3740	3739	1
3735	3740	3744	1
3739	3740	3744	1
3740	3735	3743	1
3740	3739	3742	1
3748	3747	3749	1
3746	3745	11157	1
8986	8985	8996	1
8984	8985	8996	1
8996	9004	8998	1
8996	9004	9005	1
8986	8987	8994	1
8988	8987	8994	1
8994	6538	6532	1
8994	6538	6539	1
8985	8996	8997	1
8985	8996	9004	1
8985	8986	8987	1
8985	8986	8990	1
8985	8984	8989	1
8985	8984	8992	1
8987	8994	8995	1
8987	8994	6538	1
8987	8986	8990	1
8987	8988	8989	1
8987	8988	8991	1
8984	8985	8986	1
8986	8987	8988	1
8984	8989	8988	1
8984	8989	8993	1
8988	8989	8993	1
8989	8984	8992	1
8989	8988	8991	1
8997	8996	9004	1
8995	8994	6538	1
1729	1728	1739	1
1727	1728	1739	1
1739	8024	8018	1
1739	8024	8025	1
1729	1730	1737	1
1731	1730	1737	1
1710	1716	1737	1
1717	1716	1737	1
1728	1739	1740	1
1728	1739	8024	1
1728	1729	1730	1
1728	1729	1733	1
1728	1727	1732	1
1728	1727	1735	1
1730	1737	1738	1
1716	1737	1730	1
1730	1729	1733	1
1730	1731	1732	1
1730	1731	1734	1
1727	1728	1729	1
1729	1730	1731	1
1727	1732	1731	1
1727	1732	1736	1
1731	1732	1736	1
1732	1727	1735	1
1732	1731	1734	1
1740	1739	8024	1
1716	1737	1738	1
8533	8534	8541	1
8535	8534	8541	1
8541	8551	8545	1
8541	8551	8552	1
8533	8532	8543	1
8531	8532	8543	1
8543	5406	5396	1
8543	5406	5408	1
8534	8541	8542	1
8534	8541	8551	1
8532	8533	8534	1
8534	8533	8537	1
8534	8535	8536	1
8534	8535	8538	1
8532	8543	8544	1
8532	8543	5406	1
8532	8533	8537	1
8532	8531	8536	1
8532	8531	8539	1
8533	8534	8535	1
8531	8532	8533	1
8531	8536	8535	1
8535	8536	8540	1
8531	8536	8540	1
8536	8535	8538	1
8536	8531	8539	1
8542	8541	8551	1
8544	8543	5406	1
12115	12114	12125	1
12113	12114	12125	1
12125	11053	11046	1
12125	11053	11055	1
12115	12116	12123	1
12117	12116	12123	1
12123	5565	5558	1
12123	5565	5567	1
12114	12125	12126	1
12114	12125	11053	1
12114	12115	12116	1
12114	12115	12119	1
12114	12113	12118	1
12114	12113	12121	1
12116	12123	12124	1
12116	12123	5565	1
12116	12115	12119	1
12116	12117	12118	1
12116	12117	12120	1
12113	12114	12115	1
12115	12116	12117	1
12113	12118	12117	1
12113	12118	12122	1
12117	12118	12122	1
12118	12113	12121	1
12118	12117	12120	1
12126	12125	11053	1
12124	12123	5565	1
11583	11582	11593	1
11581	11582	11593	1
11593	11141	11134	1
11593	11141	11143	1
11583	11584	11591	1
11585	11584	11591	1
11591	4562	4555	1
11591	4562	4564	1
11582	11593	11594	1
11582	11593	11141	1
11582	11583	11584	1
11582	11583	11587	1
11582	11581	11586	1
11582	11581	11589	1
11584	11591	11592	1
11584	11591	4562	1
11584	11583	11587	1
11584	11585	11586	1
11584	11585	11588	1
11581	11582	11583	1
11583	11584	11585	1
11581	11586	11585	1
11581	11586	11590	1
11585	11586	11590	1
11586	11581	11589	1
11586	11585	11588	1
11594	11593	11141	1
11592	11591	4562	1
13109	13108	13119	1
13107	13108	13119	1
13119	7854	7847	1
13119	7854	7856	1
13109	13110	13117	1
13111	13110	13117	1
13117	8863	8856	1
13117	8863	8865	1
13108	13119	13120	1
13108	13119	7854	1
13108	13109	13110	1
13108	13109	13113	1
13108	13107	13112	1
13108	13107	13115	1
13110	13117	13118	1
13110	13117	8863	1
13110	13109	13113	1
13110	13111	13112	1
13110	13111	13114	1
13107	13108	13109	1
13109	13110	13111	1
13107	13112	13111	1
13107	13112	13116	1
13111	13112	13116	1
13112	13107	13115	1
13112	13111	13114	1
13120	13119	7854	1
13118	13117	8863	1
2687	2686	2697	1
2685	2686	2697	1
2687	2688	2695	1
2689	2688	2695	1
2695	4383	4377	1
2695	4383	4384	1
2686	2697	2698	1
2686	2697	2699	1
2686	2687	2688	1
2686	2687	2691	1
2686	2685	2690	1
2686	2685	2693	1
2688	2695	2696	1
2688	2695	4383	1
2688	2687	2691	1
2688	2689	2690	1
2688	2689	2692	1
2685	2686	2687	1
2687	2688	2689	1
2685	2690	2689	1
2685	2690	2694	1
2689	2690	2694	1
2690	2685	2693	1
2690	2689	2692	1
2698	2697	2699	1
2696	2695	4383	1
6083	6082	6093	1
6081	6082	6093	1
6093	7578	7571	1
6093	7578	7580	1
6083	6084	6091	1
6085	6084	6091	1
6091	6106	6099	1
6091	6106	6108	1
6082	6093	6094	1
6082	6093	7578	1
6082	6083	6084	1
6082	6083	6087	1
6082	6081	6086	1
6082	6081	6089	1
6084	6091	6092	1
6084	6091	6106	1
6084	6083	6087	1
6084	6085	6086	1
6084	6085	6088	1
6081	6082	6083	1
6083	6084	6085	1
6081	6086	6085	1
6081	6086	6090	1
6085	6086	6090	1
6086	6081	6089	1
6086	6085	6088	1
6094	6093	7578	1
6092	6091	6106	1
13641	13640	13651	1
13639	13640	13651	1
13651	9972	9965	1
13651	9972	9974	1
13641	13642	13649	1
13643	13642	13649	1
13649	10336	10326	1
13649	10336	10338	1
13640	13651	13652	1
13640	13651	9972	1
13640	13641	13642	1
13640	13641	13645	1
13640	13639	13644	1
13640	13639	13647	1
13642	13649	13650	1
13642	13649	10336	1
13642	13641	13645	1
13642	13643	13644	1
13642	13643	13646	1
13639	13640	13641	1
13641	13642	13643	1
13639	13644	13643	1
13639	13644	13648	1
13643	13644	13648	1
13644	13639	13647	1
13644	13643	13646	1
13652	13651	9972	1
13650	13649	10336	1
3182	3181	3192	1
3180	3181	3192	1
3182	3183	3190	1
3184	3183	3190	1
3190	8425	8418	1
3190	8425	8427	1
3181	3192	3193	1
3181	3192	3194	1
3181	3182	3183	1
3181	3182	3186	1
3181	3180	3185	1
3181	3180	3188	1
3183	3190	3191	1
3183	3190	8425	1
3183	3182	3186	1
3183	3184	3185	1
3183	3184	3187	1
3180	3181	3182	1
3182	3183	3184	1
3180	3185	3184	1
3180	3185	3189	1
3184	3185	3189	1
3185	3180	3188	1
3185	3184	3187	1
3193	3192	3194	1
3191	3190	8425	1
3137	3138	3145	1
3139	3138	3145	1
3145	8102	8095	1
3145	8102	8104	1
3137	3136	3147	1
3135	3136	3147	1
3138	3145	3146	1
3138	3145	8102	1
3136	3137	3138	1
3138	3137	3141	1
3138	3139	3140	1
3138	3139	3142	1
3136	3147	3149	1
3136	3147	3148	1
3136	3137	3141	1
3136	3135	3140	1
3136	3135	3143	1
3137	3138	3139	1
3135	3136	3137	1
3135	3140	3139	1
3139	3140	3144	1
3135	3140	3144	1
3140	3139	3142	1
3140	3135	3143	1
3146	3145	8102	1
3149	3147	3148	1
13683	13682	13693	1
13681	13682	13693	1
13693	11039	11029	1
13693	11039	11041	1
13683	13684	13691	1
13685	13684	13691	1
13691	10498	10488	1
13691	10498	10500	1
13682	13693	13694	1
13682	13693	11039	1
13682	13683	13684	1
13682	13683	13687	1
13682	13681	13686	1
13682	13681	13689	1
13684	13691	13692	1
13684	13691	10498	1
13684	13683	13687	1
13684	13685	13686	1
13684	13685	13688	1
13681	13682	13683	1
13683	13684	13685	1
13681	13686	13685	1
13681	13686	13690	1
13685	13686	13690	1
13686	13681	13689	1
13686	13685	13688	1
13694	13693	11039	1
13692	13691	10498	1
3212	3213	3220	1
3214	3213	3220	1
3220	8572	8562	1
3220	8572	8574	1
3212	3211	3222	1
3210	3211	3222	1
3213	3220	3221	1
3213	3220	8572	1
3211	3212	3213	1
3213	3212	3216	1
3213	3214	3215	1
3213	3214	3217	1
3211	3222	3224	1
3211	3222	3223	1
3211	3212	3216	1
3211	3210	3215	1
3211	3210	3218	1
3212	3213	3214	1
3210	3211	3212	1
3210	3215	3214	1
3214	3215	3219	1
3210	3215	3219	1
3215	3214	3217	1
3215	3210	3218	1
3221	3220	8572	1
3224	3222	3223	1
11015	11014	11025	1
11013	11014	11025	1
11025	11033	11027	1
11025	11033	11034	1
11015	11016	11023	1
11017	11016	11023	1
1096	1103	11023	1
1105	1103	11023	1
11014	11025	11026	1
11014	11025	11033	1
11014	11015	11016	1
11014	11015	11019	1
11014	11013	11018	1
11014	11013	11021	1
11016	11023	11024	1
1103	11023	11016	1
11016	11015	11019	1
11016	11017	11018	1
11016	11017	11020	1
11013	11014	11015	1
11015	11016	11017	1
11013	11018	11017	1
11013	11018	11022	1
11017	11018	11022	1
11018	11013	11021	1
11018	11017	11020	1
11026	11025	11033	1
1103	11023	11024	1
12591	12590	12601	1
12589	12590	12601	1
12601	7213	7206	1
12601	7213	7215	1
12591	12592	12599	1
12593	12592	12599	1
12599	6310	6303	1
12599	6310	6312	1
12590	12601	12602	1
12590	12601	7213	1
12590	12591	12592	1
12590	12591	12595	1
12590	12589	12594	1
12590	12589	12597	1
12592	12599	12600	1
12592	12599	6310	1
12592	12591	12595	1
12592	12593	12594	1
12592	12593	12596	1
12589	12590	12591	1
12591	12592	12593	1
12589	12594	12593	1
12589	12594	12598	1
12593	12594	12598	1
12594	12589	12597	1
12594	12593	12596	1
12602	12601	7213	1
12600	12599	6310	1
12073	12072	12083	1
12071	12072	12083	1
12083	5508	5498	1
12083	5508	5510	1
12073	12074	12081	1
12075	12074	12081	1
12081	9899	9892	1
12081	9899	9901	1
12072	12083	12084	1
12072	12083	5508	1
12072	12073	12074	1
12072	12073	12077	1
12072	12071	12076	1
12072	12071	12079	1
12074	12081	12082	1
12074	12081	9899	1
12074	12073	12077	1
12074	12075	12076	1
12074	12075	12078	1
12071	12072	12073	1
12073	12074	12075	1
12071	12076	12075	1
12071	12076	12080	1
12075	12076	12080	1
12076	12071	12079	1
12076	12075	12078	1
12084	12083	5508	1
12082	12081	9899	1
3257	3256	3267	1
3255	3256	3267	1
3257	3258	3265	1
3259	3258	3265	1
3265	8893	8883	1
3265	8893	8895	1
3256	3267	3268	1
3256	3267	3269	1
3256	3257	3258	1
3256	3257	3261	1
3256	3255	3260	1
3256	3255	3263	1
3258	3265	3266	1
3258	3265	8893	1
3258	3257	3261	1
3258	3259	3260	1
3258	3259	3262	1
3255	3256	3257	1
3257	3258	3259	1
3255	3260	3259	1
3255	3260	3264	1
3259	3260	3264	1
3260	3255	3263	1
3260	3259	3262	1
3268	3267	3269	1
3266	3265	8893	1
12857	12856	12867	1
12855	12856	12867	1
12867	9374	9364	1
12867	9374	9376	1
12857	12858	12865	1
12859	12858	12865	1
12865	7069	7059	1
12865	7069	7071	1
12856	12867	12868	1
12856	12867	9374	1
12856	12857	12858	1
12856	12857	12861	1
12856	12855	12860	1
12856	12855	12863	1
12858	12865	12866	1
12858	12865	7069	1
12858	12857	12861	1
12858	12859	12860	1
12858	12859	12862	1
12855	12856	12857	1
12857	12858	12859	1
12855	12860	12859	1
12855	12860	12864	1
12859	12860	12864	1
12860	12855	12863	1
12860	12859	12862	1
12868	12867	9374	1
12866	12865	7069	1
8166	8165	8176	1
8164	8165	8176	1
8176	8184	8178	1
8176	8184	8185	1
8166	8167	8174	1
8168	8167	8174	1
8174	9543	9537	1
8174	9543	9544	1
8165	8176	8177	1
8165	8176	8184	1
8165	8166	8167	1
8165	8166	8170	1
8165	8164	8169	1
8165	8164	8172	1
8167	8174	8175	1
8167	8174	9543	1
8167	8166	8170	1
8167	8168	8169	1
8167	8168	8171	1
8164	8165	8166	1
8166	8167	8168	1
8164	8169	8168	1
8164	8169	8173	1
8168	8169	8173	1
8169	8164	8172	1
8169	8168	8171	1
8177	8176	8184	1
8175	8174	9543	1
11569	11570	11577	1
11571	11570	11577	1
11577	5932	5922	1
11577	5932	5934	1
11569	11568	11579	1
11567	11568	11579	1
11579	4563	4553	1
11579	4563	4565	1
11570	11577	11578	1
11570	11577	5932	1
11570	11569	11568	1
11570	11569	11573	1
11570	11571	11572	1
11570	11571	11574	1
11568	11579	11580	1
11568	11579	4563	1
11568	11569	11573	1
11568	11567	11572	1
11568	11567	11575	1
11571	11570	11569	1
11569	11568	11567	1
11571	11572	11567	1
11571	11572	11576	1
11567	11572	11576	1
11572	11571	11574	1
11572	11567	11575	1
11578	11577	5932	1
11580	11579	4563	1
12269	12268	12279	1
12267	12268	12279	1
12279	5771	5761	1
12279	5771	5773	1
12269	12270	12277	1
12271	12270	12277	1
12277	6165	6155	1
12277	6165	6167	1
12268	12279	12280	1
12268	12279	5771	1
12268	12269	12270	1
12268	12269	12273	1
12268	12267	12272	1
12268	12267	12275	1
12270	12277	12278	1
12270	12277	6165	1
12270	12269	12273	1
12270	12271	12272	1
12270	12271	12274	1
12267	12268	12269	1
12269	12270	12271	1
12267	12272	12271	1
12267	12272	12276	1
12271	12272	12276	1
12272	12267	12275	1
12272	12271	12274	1
12280	12279	5771	1
12278	12277	6165	1
13543	13542	13553	1
13541	13542	13553	1
13553	9068	9061	1
13553	9068	9070	1
13543	13544	13551	1
13545	13544	13551	1
13551	10644	10634	1
13551	10644	10646	1
13542	13553	13554	1
13542	13553	9068	1
13542	13543	13544	1
13542	13543	13547	1
13542	13541	13546	1
13542	13541	13549	1
13544	13551	13552	1
13544	13551	10644	1
13544	13543	13547	1
13544	13545	13546	1
13544	13545	13548	1
13541	13542	13543	1
13543	13544	13545	1
13541	13546	13545	1
13541	13546	13550	1
13545	13546	13550	1
13546	13541	13549	1
13546	13545	13548	1
13554	13553	9068	1
13552	13551	10644	1
3017	3018	3025	1
3019	3018	3025	1
3025	7034	7028	1
3025	7034	7035	1
3017	3016	3027	1
3015	3016	3027	1
3018	3025	3026	1
3018	3025	7034	1
3016	3017	3018	1
3018	3017	3021	1
3018	3019	3020	1
3018	3019	3022	1
3016	3027	3028	1
3016	3027	3029	1
3016	3017	3021	1
3016	3015	3020	1
3016	3015	3023	1
3017	3018	3019	1
3015	3016	3017	1
3015	3020	3019	1
3019	3020	3024	1
3015	3020	3024	1
3020	3019	3022	1
3020	3015	3023	1
3026	3025	7034	1
3028	3027	3029	1
8679	8678	8689	1
8677	8678	8689	1
8689	5741	5734	1
8689	5741	5743	1
8679	8680	8687	1
8681	8680	8687	1
8687	8697	8691	1
8687	8697	8698	1
8678	8689	8690	1
8678	8689	5741	1
8678	8679	8680	1
8678	8679	8683	1
8678	8677	8682	1
8678	8677	8685	1
8680	8687	8688	1
8680	8687	8697	1
8680	8679	8683	1
8680	8681	8682	1
8680	8681	8684	1
8677	8678	8679	1
8679	8680	8681	1
8677	8682	8681	1
8677	8682	8686	1
8681	8682	8686	1
8682	8677	8685	1
8682	8681	8684	1
8690	8689	5741	1
8688	8687	8697	1
5703	5702	5713	1
5701	5702	5713	1
5713	5721	5715	1
5713	5721	5722	1
5703	5704	5711	1
5705	5704	5711	1
5711	4708	4698	1
5711	4708	4710	1
5702	5713	5714	1
5702	5713	5721	1
5702	5703	5704	1
5702	5703	5707	1
5702	5701	5706	1
5702	5701	5709	1
5704	5711	5712	1
5704	5711	4708	1
5704	5703	5707	1
5704	5705	5706	1
5704	5705	5708	1
5701	5702	5703	1
5703	5704	5705	1
5701	5706	5705	1
5701	5706	5710	1
5705	5706	5710	1
5706	5701	5709	1
5706	5705	5708	1
5714	5713	5721	1
5712	5711	4708	1
1914	1913	1924	1
1912	1913	1924	1
1924	10745	10738	1
1924	10745	10747	1
1914	1915	1922	1
1916	1915	1922	1
1895	1901	1922	1
1902	1901	1922	1
1913	1924	1925	1
1913	1924	10745	1
1913	1914	1915	1
1913	1914	1918	1
1913	1912	1917	1
1913	1912	1920	1
1915	1922	1923	1
1901	1922	1915	1
1915	1914	1918	1
1915	1916	1917	1
1915	1916	1919	1
1912	1913	1914	1
1914	1915	1916	1
1912	1917	1916	1
1912	1917	1921	1
1916	1917	1921	1
1917	1912	1920	1
1917	1916	1919	1
1925	1924	10745	1
1901	1922	1923	1
6025	6024	6035	1
6023	6024	6035	1
6035	7223	7217	1
6035	7223	7224	1
6025	6026	6033	1
6027	6026	6033	1
6033	6043	6037	1
6033	6043	6044	1
6024	6035	6036	1
6024	6035	7223	1
6024	6025	6026	1
6024	6025	6029	1
6024	6023	6028	1
6024	6023	6031	1
6026	6033	6034	1
6026	6033	6043	1
6026	6025	6029	1
6026	6027	6028	1
6026	6027	6030	1
6023	6024	6025	1
6025	6026	6027	1
6023	6028	6027	1
6023	6028	6032	1
6027	6028	6032	1
6028	6023	6031	1
6028	6027	6030	1
6036	6035	7223	1
6034	6033	6043	1
13781	13780	13791	1
13779	13780	13791	1
633	640	13791	1
642	640	13791	1
13781	13782	13789	1
13783	13782	13789	1
1591	1598	13789	1
1600	1598	13789	1
13780	13791	13792	1
640	13791	13780	1
13780	13781	13782	1
13780	13781	13785	1
13780	13779	13784	1
13780	13779	13787	1
13782	13789	13790	1
1598	13789	13782	1
13782	13781	13785	1
13782	13783	13784	1
13782	13783	13786	1
13779	13780	13781	1
13781	13782	13783	1
13779	13784	13783	1
13779	13784	13788	1
13783	13784	13788	1
13784	13779	13787	1
13784	13783	13786	1
640	13791	13792	1
1598	13789	13790	1
2927	2928	2935	1
2929	2928	2935	1
2935	6543	6536	1
2935	6543	6545	1
2927	2926	2937	1
2925	2926	2937	1
2928	2935	2936	1
2928	2935	6543	1
2926	2927	2928	1
2928	2927	2931	1
2928	2929	2930	1
2928	2929	2932	1
2926	2937	2939	1
2926	2937	2938	1
2926	2927	2931	1
2926	2925	2930	1
2926	2925	2933	1
2927	2928	2929	1
2925	2926	2927	1
2925	2930	2929	1
2929	2930	2934	1
2925	2930	2934	1
2930	2929	2932	1
2930	2925	2933	1
2936	2935	6543	1
2939	2937	2938	1
9292	9291	9302	1
9290	9291	9302	1
9302	9310	9304	1
9302	9310	9311	1
9292	9293	9300	1
9294	9293	9300	1
9300	4673	4667	1
9300	4673	4674	1
9291	9302	9303	1
9291	9302	9310	1
9291	9292	9293	1
9291	9292	9296	1
9291	9290	9295	1
9291	9290	9298	1
9293	9300	9301	1
9293	9300	4673	1
9293	9292	9296	1
9293	9294	9295	1
9293	9294	9297	1
9290	9291	9292	1
9292	9293	9294	1
9290	9295	9294	1
9290	9295	9299	1
9294	9295	9299	1
9295	9290	9298	1
9295	9294	9297	1
9303	9302	9310	1
9301	9300	4673	1
5484	5485	5492	1
5486	5485	5492	1
5492	4955	4945	1
5492	4955	4957	1
5484	5483	5494	1
5482	5483	5494	1
5494	5502	5496	1
5494	5502	5503	1
5485	5492	5493	1
5485	5492	4955	1
5483	5484	5485	1
5485	5484	5488	1
5485	5486	5487	1
5485	5486	5489	1
5483	5494	5495	1
5483	5494	5502	1
5483	5484	5488	1
5483	5482	5487	1
5483	5482	5490	1
5484	5485	5486	1
5482	5483	5484	1
5482	5487	5486	1
5486	5487	5491	1
5482	5487	5491	1
5487	5486	5489	1
5487	5482	5490	1
5493	5492	4955	1
5495	5494	5502	1
13081	13080	13091	1
13079	13080	13091	1
13091	7709	7702	1
13091	7709	7711	1
13081	13082	13089	1
13083	13082	13089	1
13089	10804	10797	1
13089	10804	10806	1
13080	13091	13092	1
13080	13091	7709	1
13080	13081	13082	1
13080	13081	13085	1
13080	13079	13084	1
13080	13079	13087	1
13082	13089	13090	1
13082	13089	10804	1
13082	13081	13085	1
13082	13083	13084	1
13082	13083	13086	1
13079	13080	13081	1
13081	13082	13083	1
13079	13084	13083	1
13079	13084	13088	1
13083	13084	13088	1
13084	13079	13087	1
13084	13083	13086	1
13092	13091	7709	1
13090	13089	10804	1
12409	12408	12419	1
12407	12408	12419	1
12419	9373	9366	1
12419	9373	9375	1
12409	12410	12417	1
12411	12410	12417	1
12417	5976	5966	1
12417	5976	5978	1
12408	12419	12420	1
12408	12419	9373	1
12408	12409	12410	1
12408	12409	12413	1
12408	12407	12412	1
12408	12407	12415	1
12410	12417	12418	1
12410	12417	5976	1
12410	12409	12413	1
12410	12411	12412	1
12410	12411	12414	1
12407	12408	12409	1
12409	12410	12411	1
12407	12412	12411	1
12407	12412	12416	1
12411	12412	12416	1
12412	12407	12415	1
12412	12411	12414	1
12420	12419	9373	1
12418	12417	5976	1
10810	10809	10820	1
10808	10809	10820	1
10820	6975	6969	1
10820	6975	6976	1
10810	10811	10818	1
10812	10811	10818	1
10818	10828	10822	1
10818	10828	10829	1
10809	10820	10821	1
10809	10820	6975	1
10809	10810	10811	1
10809	10810	10814	1
10809	10808	10813	1
10809	10808	10816	1
10811	10818	10819	1
10811	10818	10828	1
10811	10810	10814	1
10811	10812	10813	1
10811	10812	10815	1
10808	10809	10810	1
10810	10811	10812	1
10808	10813	10812	1
10808	10813	10817	1
10812	10813	10817	1
10813	10808	10816	1
10813	10812	10815	1
10821	10820	6975	1
10819	10818	10828	1
2807	2806	2817	1
2805	2806	2817	1
2807	2808	2815	1
2809	2808	2815	1
2815	5405	5398	1
2815	5405	5407	1
2806	2817	2819	1
2806	2817	2818	1
2806	2807	2808	1
2806	2807	2811	1
2806	2805	2810	1
2806	2805	2813	1
2808	2815	2816	1
2808	2815	5405	1
2808	2807	2811	1
2808	2809	2810	1
2808	2809	2812	1
2805	2806	2807	1
2807	2808	2809	1
2805	2810	2809	1
2805	2810	2814	1
2809	2810	2814	1
2810	2805	2813	1
2810	2809	2812	1
2818	2817	2819	1
2816	2815	5405	1
13473	13472	13483	1
13471	13472	13483	1
13483	9826	9819	1
13483	9826	9828	1
13473	13474	13481	1
13475	13474	13481	1
13481	8835	8825	1
13481	8835	8837	1
13472	13483	13484	1
13472	13483	9826	1
13472	13473	13474	1
13472	13473	13477	1
13472	13471	13476	1
13472	13471	13479	1
13474	13481	13482	1
13474	13481	8835	1
13474	13473	13477	1
13474	13475	13476	1
13474	13475	13478	1
13471	13472	13473	1
13473	13474	13475	1
13471	13476	13475	1
13471	13476	13480	1
13475	13476	13480	1
13476	13471	13479	1
13476	13475	13478	1
13484	13483	9826	1
13482	13481	8835	1
9730	9731	9738	1
9732	9731	9738	1
9738	9798	9788	1
9738	9798	9800	1
9730	9729	9740	1
9728	9729	9740	1
9740	9748	9742	1
9740	9748	9749	1
9731	9738	9739	1
9731	9738	9798	1
9729	9730	9731	1
9731	9730	9734	1
9731	9732	9733	1
9731	9732	9735	1
9729	9740	9741	1
9729	9740	9748	1
9729	9730	9734	1
9729	9728	9733	1
9729	9728	9736	1
9730	9731	9732	1
9728	9729	9730	1
9728	9733	9732	1
9732	9733	9737	1
9728	9733	9737	1
9733	9732	9735	1
9733	9728	9736	1
9739	9738	9798	1
9741	9740	9748	1
11233	11232	11243	1
11231	11232	11243	1
11243	3895	3885	1
11243	3895	3897	1
11233	11234	11241	1
11235	11234	11241	1
11241	6588	6578	1
11241	6588	6590	1
11232	11243	11244	1
11232	11243	3895	1
11232	11233	11234	1
11232	11233	11237	1
11232	11231	11236	1
11232	11231	11239	1
11234	11241	11242	1
11234	11241	6588	1
11234	11233	11237	1
11234	11235	11236	1
11234	11235	11238	1
11231	11232	11233	1
11233	11234	11235	1
11231	11236	11235	1
11231	11236	11240	1
11235	11236	11240	1
11236	11231	11239	1
11236	11235	11238	1
11244	11243	3895	1
11242	11241	6588	1
11499	11500	11507	1
11501	11500	11507	1
11507	9884	9877	1
11507	9884	9886	1
11499	11498	11509	1
11497	11498	11509	1
11509	4374	4364	1
11509	4374	4376	1
11500	11507	11508	1
11500	11507	9884	1
11500	11499	11498	1
11500	11499	11503	1
11500	11501	11502	1
11500	11501	11504	1
11498	11509	11510	1
11498	11509	4374	1
11498	11499	11503	1
11498	11497	11502	1
11498	11497	11505	1
11501	11500	11499	1
11499	11498	11497	1
11501	11502	11497	1
11501	11502	11506	1
11497	11502	11506	1
11502	11501	11504	1
11502	11497	11505	1
11508	11507	9884	1
11510	11509	4374	1
2657	2656	2667	1
2655	2656	2667	1
2657	2658	2665	1
2659	2658	2665	1
2665	4272	4262	1
2665	4272	4274	1
2656	2667	2669	1
2656	2667	2668	1
2656	2657	2658	1
2656	2657	2661	1
2656	2655	2660	1
2656	2655	2663	1
2658	2665	2666	1
2658	2665	4272	1
2658	2657	2661	1
2658	2659	2660	1
2658	2659	2662	1
2655	2656	2657	1
2657	2658	2659	1
2655	2660	2659	1
2655	2660	2664	1
2659	2660	2664	1
2660	2655	2663	1
2660	2659	2662	1
2668	2667	2669	1
2666	2665	4272	1
3122	3121	3132	1
3120	3121	3132	1
3122	3123	3130	1
3124	3123	3130	1
3130	8087	8080	1
3130	8087	8089	1
3121	3132	3133	1
3121	3132	3134	1
3121	3122	3123	1
3121	3122	3126	1
3121	3120	3125	1
3121	3120	3128	1
3123	3130	3131	1
3123	3130	8087	1
3123	3122	3126	1
3123	3124	3125	1
3123	3124	3127	1
3120	3121	3122	1
3122	3123	3124	1
3120	3125	3124	1
3120	3125	3129	1
3124	3125	3129	1
3125	3120	3128	1
3125	3124	3127	1
3133	3132	3134	1
3131	3130	8087	1
13319	13318	13329	1
13317	13318	13329	1
13329	8279	8269	1
13329	8279	8281	1
13319	13320	13327	1
13321	13320	13327	1
13327	9141	9134	1
13327	9141	9143	1
13318	13329	13330	1
13318	13329	8279	1
13318	13319	13320	1
13318	13319	13323	1
13318	13317	13322	1
13318	13317	13325	1
13320	13327	13328	1
13320	13327	9141	1
13320	13319	13323	1
13320	13321	13322	1
13320	13321	13324	1
13317	13318	13319	1
13319	13320	13321	1
13317	13322	13321	1
13317	13322	13326	1
13321	13322	13326	1
13322	13317	13325	1
13322	13321	13324	1
13330	13329	8279	1
13328	13327	9141	1
5776	5775	5786	1
5774	5775	5786	1
5786	7257	7250	1
5786	7257	7259	1
5776	5777	5784	1
5778	5777	5784	1
5784	5794	5788	1
5784	5794	5795	1
5775	5786	5787	1
5775	5786	7257	1
5775	5776	5777	1
5775	5776	5780	1
5775	5774	5779	1
5775	5774	5782	1
5777	5784	5785	1
5777	5784	5794	1
5777	5776	5780	1
5777	5778	5779	1
5777	5778	5781	1
5774	5775	5776	1
5776	5777	5778	1
5774	5779	5778	1
5774	5779	5783	1
5778	5779	5783	1
5779	5774	5782	1
5779	5778	5781	1
5787	5786	7257	1
5785	5784	5794	1
9774	9773	9784	1
9772	9773	9784	1
9784	9792	9786	1
9784	9792	9793	1
9774	9775	9782	1
9776	9775	9782	1
9782	8454	8447	1
9782	8454	8456	1
9773	9784	9785	1
9773	9784	9792	1
9773	9774	9775	1
9773	9774	9778	1
9773	9772	9777	1
9773	9772	9780	1
9775	9782	9783	1
9775	9782	8454	1
9775	9774	9778	1
9775	9776	9777	1
9775	9776	9779	1
9772	9773	9774	1
9774	9775	9776	1
9772	9777	9776	1
9772	9777	9781	1
9776	9777	9781	1
9777	9772	9780	1
9777	9776	9779	1
9785	9784	9792	1
9783	9782	8454	1
10283	10282	10293	1
10281	10282	10293	1
10293	10301	10295	1
10293	10301	10302	1
10283	10284	10291	1
10285	10284	10291	1
10291	8029	8022	1
10291	8029	8031	1
10282	10293	10294	1
10282	10293	10301	1
10282	10283	10284	1
10282	10283	10287	1
10282	10281	10286	1
10282	10281	10289	1
10284	10291	10292	1
10284	10291	8029	1
10284	10283	10287	1
10284	10285	10286	1
10284	10285	10288	1
10281	10282	10283	1
10283	10284	10285	1
10281	10286	10285	1
10281	10286	10290	1
10285	10286	10290	1
10286	10281	10289	1
10286	10285	10288	1
10294	10293	10301	1
10292	10291	8029	1
12941	12940	12951	1
12939	12940	12951	1
12951	7389	7379	1
12951	7389	7391	1
12941	12942	12949	1
12943	12942	12949	1
12949	10001	9994	1
12949	10001	10003	1
12940	12951	12952	1
12940	12951	7389	1
12940	12941	12942	1
12940	12941	12945	1
12940	12939	12944	1
12940	12939	12947	1
12942	12949	12950	1
12942	12949	10001	1
12942	12941	12945	1
12942	12943	12944	1
12942	12943	12946	1
12939	12940	12941	1
12941	12942	12943	1
12939	12944	12943	1
12939	12944	12948	1
12943	12944	12948	1
12944	12939	12947	1
12944	12943	12946	1
12952	12951	7389	1
12950	12949	10001	1
3032	3033	3040	1
3034	3033	3040	1
3040	7315	7308	1
3040	7315	7317	1
3032	3031	3042	1
3030	3031	3042	1
3033	3040	3041	1
3033	3040	7315	1
3031	3032	3033	1
3033	3032	3036	1
3033	3034	3035	1
3033	3034	3037	1
3031	3042	3044	1
3031	3042	3043	1
3031	3032	3036	1
3031	3030	3035	1
3031	3030	3038	1
3032	3033	3034	1
3030	3031	3032	1
3030	3035	3034	1
3034	3035	3039	1
3030	3035	3039	1
3035	3034	3037	1
3035	3030	3038	1
3041	3040	7315	1
3044	3042	3043	1
10210	10211	10218	1
10212	10211	10218	1
10218	8892	8885	1
10218	8892	8894	1
10210	10209	10220	1
10208	10209	10220	1
10220	10228	10222	1
10220	10228	10229	1
10211	10218	10219	1
10211	10218	8892	1
10209	10210	10211	1
10211	10210	10214	1
10211	10212	10213	1
10211	10212	10215	1
10209	10220	10221	1
10209	10220	10228	1
10209	10210	10214	1
10209	10208	10213	1
10209	10208	10216	1
10210	10211	10212	1
10208	10209	10210	1
10208	10213	10212	1
10212	10213	10217	1
10208	10213	10217	1
10213	10212	10215	1
10213	10208	10216	1
10219	10218	8892	1
10221	10220	10228	1
2867	2866	2877	1
2865	2866	2877	1
2867	2868	2875	1
2869	2868	2875	1
2875	5736	5730	1
2875	5736	5737	1
2866	2877	2878	1
2866	2877	2879	1
2866	2867	2868	1
2866	2867	2871	1
2866	2865	2870	1
2866	2865	2873	1
2868	2875	2876	1
2868	2875	5736	1
2868	2867	2871	1
2868	2869	2870	1
2868	2869	2872	1
2865	2866	2867	1
2867	2868	2869	1
2865	2870	2869	1
2865	2870	2874	1
2869	2870	2874	1
2870	2865	2873	1
2870	2869	2872	1
2878	2877	2879	1
2876	2875	5736	1
4829	4828	4839	1
4827	4828	4839	1
4839	4862	4856	1
4839	4862	4863	1
4829	4830	4837	1
4831	4830	4837	1
4837	4847	4841	1
4837	4847	4848	1
4828	4839	4840	1
4828	4839	4862	1
4828	4829	4830	1
4828	4829	4833	1
4828	4827	4832	1
4828	4827	4835	1
4830	4837	4838	1
4830	4837	4847	1
4830	4829	4833	1
4830	4831	4832	1
4830	4831	4834	1
4827	4828	4829	1
4829	4830	4831	1
4827	4832	4831	1
4827	4832	4836	1
4831	4832	4836	1
4832	4827	4835	1
4832	4831	4834	1
4840	4839	4862	1
4838	4837	4847	1
6287	6286	6297	1
6285	6286	6297	1
6297	6485	6478	1
6297	6485	6487	1
6287	6288	6295	1
6289	6288	6295	1
6295	6305	6299	1
6295	6305	6306	1
6286	6297	6298	1
6286	6297	6485	1
6286	6287	6288	1
6286	6287	6291	1
6286	6285	6290	1
6286	6285	6293	1
6288	6295	6296	1
6288	6295	6305	1
6288	6287	6291	1
6288	6289	6290	1
6288	6289	6292	1
6285	6286	6287	1
6287	6288	6289	1
6285	6290	6289	1
6285	6290	6294	1
6289	6290	6294	1
6290	6285	6293	1
6290	6289	6292	1
6298	6297	6485	1
6296	6295	6305	1
12605	12604	12615	1
12603	12604	12615	1
1803	1809	12615	1
1810	1809	12615	1
12605	12606	12613	1
12607	12606	12613	1
12613	6325	6318	1
12613	6325	6327	1
12604	12615	12616	1
1809	12615	12604	1
12604	12605	12606	1
12604	12605	12609	1
12604	12603	12608	1
12604	12603	12611	1
12606	12613	12614	1
12606	12613	6325	1
12606	12605	12609	1
12606	12607	12608	1
12606	12607	12610	1
12603	12604	12605	1
12605	12606	12607	1
12603	12608	12607	1
12603	12608	12612	1
12607	12608	12612	1
12608	12603	12611	1
12608	12607	12610	1
1809	12615	12616	1
12614	12613	6325	1
5747	5746	5757	1
5745	5746	5757	1
5757	9855	9848	1
5757	9855	9857	1
5747	5748	5755	1
5749	5748	5755	1
5755	5765	5759	1
5755	5765	5766	1
5746	5757	5758	1
5746	5757	9855	1
5746	5747	5748	1
5746	5747	5751	1
5746	5745	5750	1
5746	5745	5753	1
5748	5755	5756	1
5748	5755	5765	1
5748	5747	5751	1
5748	5749	5750	1
5748	5749	5752	1
5745	5746	5747	1
5747	5748	5749	1
5745	5750	5749	1
5745	5750	5754	1
5749	5750	5754	1
5750	5745	5753	1
5750	5749	5752	1
5758	5757	9855	1
5756	5755	5765	1
8460	8459	8470	1
8458	8459	8470	1
8470	5463	5456	1
8470	5463	5465	1
8460	8461	8468	1
8462	8461	8468	1
8468	8478	8472	1
8468	8478	8479	1
8459	8470	8471	1
8459	8470	5463	1
8459	8460	8461	1
8459	8460	8464	1
8459	8458	8463	1
8459	8458	8466	1
8461	8468	8469	1
8461	8468	8478	1
8461	8460	8464	1
8461	8462	8463	1
8461	8462	8465	1
8458	8459	8460	1
8460	8461	8462	1
8458	8463	8462	1
8458	8463	8467	1
8462	8463	8467	1
8463	8458	8466	1
8463	8462	8465	1
8471	8470	5463	1
8469	8468	8478	1
1945	1944	1955	1
1943	1944	1955	1
1945	1946	1953	1
1947	1946	1953	1
1926	1932	1953	1
1933	1932	1953	1
1944	1955	1956	1
1944	1955	1957	1
1944	1945	1946	1
1944	1945	1949	1
1944	1943	1948	1
1944	1943	1951	1
1946	1953	1954	1
1932	1953	1946	1
1946	1945	1949	1
1946	1947	1948	1
1946	1947	1950	1
1943	1944	1945	1
1945	1946	1947	1
1943	1948	1947	1
1943	1948	1952	1
1947	1948	1952	1
1948	1943	1951	1
1948	1947	1950	1
1956	1955	1957	1
1932	1953	1954	1
7161	7160	7171	1
7159	7160	7171	1
7171	6427	6420	1
7171	6427	6429	1
7161	7162	7169	1
7163	7162	7169	1
7169	7184	7177	1
7169	7184	7186	1
7160	7171	7172	1
7160	7171	6427	1
7160	7161	7162	1
7160	7161	7165	1
7160	7159	7164	1
7160	7159	7167	1
7162	7169	7170	1
7162	7169	7184	1
7162	7161	7165	1
7162	7163	7164	1
7162	7163	7166	1
7159	7160	7161	1
7161	7162	7163	1
7159	7164	7163	1
7159	7164	7168	1
7163	7164	7168	1
7164	7159	7167	1
7164	7163	7166	1
7172	7171	6427	1
7170	7169	7184	1
5411	5410	5421	1
5409	5410	5421	1
5421	5429	5423	1
5421	5429	5430	1
5411	5412	5419	1
5413	5412	5419	1
5419	10672	10665	1
5419	10672	10674	1
5410	5421	5422	1
5410	5421	5429	1
5410	5411	5412	1
5410	5411	5415	1
5410	5409	5414	1
5410	5409	5417	1
5412	5419	5420	1
5412	5419	10672	1
5412	5411	5415	1
5412	5413	5414	1
5412	5413	5416	1
5409	5410	5411	1
5411	5412	5413	1
5409	5414	5413	1
5409	5414	5418	1
5413	5414	5418	1
5414	5409	5417	1
5414	5413	5416	1
5422	5421	5429	1
5420	5419	10672	1
12675	12674	12685	1
12673	12674	12685	1
12685	7155	7148	1
12685	7155	7157	1
12675	12676	12683	1
12677	12676	12683	1
12683	6515	6505	1
12683	6515	6517	1
12674	12685	12686	1
12674	12685	7155	1
12674	12675	12676	1
12674	12675	12679	1
12674	12673	12678	1
12674	12673	12681	1
12676	12683	12684	1
12676	12683	6515	1
12676	12675	12679	1
12676	12677	12678	1
12676	12677	12680	1
12673	12674	12675	1
12675	12676	12677	1
12673	12678	12677	1
12673	12678	12682	1
12677	12678	12682	1
12678	12673	12681	1
12678	12677	12680	1
12686	12685	7155	1
12684	12683	6515	1
7409	7408	7419	1
7407	7408	7419	1
7419	9403	9393	1
7419	9403	9405	1
7409	7410	7417	1
7411	7410	7417	1
7417	7427	7421	1
7417	7427	7428	1
7408	7419	7420	1
7408	7419	9403	1
7408	7409	7410	1
7408	7409	7413	1
7408	7407	7412	1
7408	7407	7415	1
7410	7417	7418	1
7410	7417	7427	1
7410	7409	7413	1
7410	7411	7412	1
7410	7411	7414	1
7407	7408	7409	1
7409	7410	7411	1
7407	7412	7411	1
7407	7412	7416	1
7411	7412	7416	1
7412	7407	7415	1
7412	7411	7414	1
7420	7419	9403	1
7418	7417	7427	1
10181	10180	10191	1
10179	10180	10191	1
1315	1322	10191	1
1324	1322	10191	1
10181	10182	10189	1
10183	10182	10189	1
10189	10199	10193	1
10189	10199	10200	1
10180	10191	10192	1
1322	10191	10180	1
10180	10181	10182	1
10180	10181	10185	1
10180	10179	10184	1
10180	10179	10187	1
10182	10189	10190	1
10182	10189	10199	1
10182	10181	10185	1
10182	10183	10184	1
10182	10183	10186	1
10179	10180	10181	1
10181	10182	10183	1
10179	10184	10183	1
10179	10184	10188	1
10183	10184	10188	1
10184	10179	10187	1
10184	10183	10186	1
1322	10191	10192	1
10190	10189	10199	1
11961	11960	11971	1
11959	11960	11971	1
11971	5217	5207	1
11971	5217	5219	1
11961	11962	11969	1
11963	11962	11969	1
2304	2306	11969	1
2307	2306	11969	1
11960	11971	11972	1
11960	11971	5217	1
11960	11961	11962	1
11960	11961	11965	1
11960	11959	11964	1
11960	11959	11967	1
11962	11969	11970	1
2306	11969	11962	1
11962	11961	11965	1
11962	11963	11964	1
11962	11963	11966	1
11959	11960	11961	1
11961	11962	11963	1
11959	11964	11963	1
11959	11964	11968	1
11963	11964	11968	1
11964	11959	11967	1
11964	11963	11966	1
11972	11971	5217	1
2306	11969	11970	1
8650	8649	8660	1
8648	8649	8660	1
8660	8668	8662	1
8660	8668	8669	1
8650	8651	8658	1
8652	8651	8658	1
8658	9345	9335	1
8658	9345	9347	1
8649	8660	8661	1
8649	8660	8668	1
8649	8650	8651	1
8649	8650	8654	1
8649	8648	8653	1
8649	8648	8656	1
8651	8658	8659	1
8651	8658	9345	1
8651	8650	8654	1
8651	8652	8653	1
8651	8652	8655	1
8648	8649	8650	1
8650	8651	8652	1
8648	8653	8652	1
8648	8653	8657	1
8652	8653	8657	1
8653	8648	8656	1
8653	8652	8655	1
8661	8660	8668	1
8659	8658	9345	1
6170	6169	6180	1
6168	6169	6180	1
6180	7398	7392	1
6180	7398	7399	1
6170	6171	6178	1
6172	6171	6178	1
6178	6188	6182	1
6178	6188	6189	1
6169	6180	6181	1
6169	6180	7398	1
6169	6170	6171	1
6169	6170	6174	1
6169	6168	6173	1
6169	6168	6176	1
6171	6178	6179	1
6171	6178	6188	1
6171	6170	6174	1
6171	6172	6173	1
6171	6172	6175	1
6168	6169	6170	1
6170	6171	6172	1
6168	6173	6172	1
6168	6173	6177	1
6172	6173	6177	1
6173	6168	6176	1
6173	6172	6175	1
6181	6180	7398	1
6179	6178	6188	1
11891	11892	11899	1
11893	11892	11899	1
11899	5101	5091	1
11899	5101	5103	1
11891	11890	11901	1
11889	11890	11901	1
11901	10557	10547	1
11901	10557	10559	1
11892	11899	11900	1
11892	11899	5101	1
11892	11891	11890	1
11892	11891	11895	1
11892	11893	11894	1
11892	11893	11896	1
11890	11901	11902	1
11890	11901	10557	1
11890	11891	11895	1
11890	11889	11894	1
11890	11889	11897	1
11893	11892	11891	1
11891	11890	11889	1
11893	11894	11889	1
11893	11894	11898	1
11889	11894	11898	1
11894	11893	11896	1
11894	11889	11897	1
11900	11899	5101	1
11902	11901	10557	1
7001	7000	7011	1
6999	7000	7011	1
7011	7019	7013	1
7011	7019	7020	1
7001	7002	7009	1
7003	7002	7009	1
7009	5056	5049	1
7009	5056	5058	1
7000	7011	7012	1
7000	7011	7019	1
7000	7001	7002	1
7000	7001	7005	1
7000	6999	7004	1
7000	6999	7007	1
7002	7009	7010	1
7002	7009	5056	1
7002	7001	7005	1
7002	7003	7004	1
7002	7003	7006	1
6999	7000	7001	1
7001	7002	7003	1
6999	7004	7003	1
6999	7004	7008	1
7003	7004	7008	1
7004	6999	7007	1
7004	7003	7006	1
7012	7011	7019	1
7010	7009	5056	1
4248	4247	4258	1
4246	4247	4258	1
4258	4266	4260	1
4258	4266	4267	1
4248	4249	4256	1
4250	4249	4256	1
4256	7345	7335	1
4256	7345	7347	1
4247	4258	4259	1
4247	4258	4266	1
4247	4248	4249	1
4247	4248	4252	1
4247	4246	4251	1
4247	4246	4254	1
4249	4256	4257	1
4249	4256	7345	1
4249	4248	4252	1
4249	4250	4251	1
4249	4250	4253	1
4246	4247	4248	1
4248	4249	4250	1
4246	4251	4250	1
4246	4251	4255	1
4250	4251	4255	1
4251	4246	4254	1
4251	4250	4253	1
4259	4258	4266	1
4257	4256	7345	1
8869	8868	8879	1
8867	8868	8879	1
8879	8887	8881	1
8879	8887	8888	1
8869	8870	8877	1
8871	8870	8877	1
8877	9631	9625	1
8877	9631	9632	1
8868	8879	8880	1
8868	8879	8887	1
8868	8869	8870	1
8868	8869	8873	1
8868	8867	8872	1
8868	8867	8875	1
8870	8877	8878	1
8870	8877	9631	1
8870	8869	8873	1
8870	8871	8872	1
8870	8871	8874	1
8867	8868	8869	1
8869	8870	8871	1
8867	8872	8871	1
8867	8872	8876	1
8871	8872	8876	1
8872	8867	8875	1
8872	8871	8874	1
8880	8879	8887	1
8878	8877	9631	1
6520	6519	6530	1
6518	6519	6530	1
6530	6544	6534	1
6530	6544	6546	1
6520	6521	6528	1
6522	6521	6528	1
6528	9753	9746	1
6528	9753	9755	1
6519	6530	6531	1
6519	6530	6544	1
6519	6520	6521	1
6519	6520	6524	1
6519	6518	6523	1
6519	6518	6526	1
6521	6528	6529	1
6521	6528	9753	1
6521	6520	6524	1
6521	6522	6523	1
6521	6522	6525	1
6518	6519	6520	1
6520	6521	6522	1
6518	6523	6522	1
6518	6523	6527	1
6522	6523	6527	1
6523	6518	6526	1
6523	6522	6525	1
6531	6530	6544	1
6529	6528	9753	1
10123	10122	10133	1
10121	10122	10133	1
10133	5507	5500	1
10133	5507	5509	1
10123	10124	10131	1
10125	10124	10131	1
10131	10146	10139	1
10131	10146	10148	1
10122	10133	10134	1
10122	10133	5507	1
10122	10123	10124	1
10122	10123	10127	1
10122	10121	10126	1
10122	10121	10129	1
10124	10131	10132	1
10124	10131	10146	1
10124	10123	10127	1
10124	10125	10126	1
10124	10125	10128	1
10121	10122	10123	1
10123	10124	10125	1
10121	10126	10125	1
10121	10126	10130	1
10125	10126	10130	1
10126	10121	10129	1
10126	10125	10128	1
10134	10133	5507	1
10132	10131	10146	1
12983	12984	12991	1
12985	12984	12991	1
1408	1415	12991	1
1417	1415	12991	1
12983	12982	12993	1
12981	12982	12993	1
12993	7432	7425	1
12993	7432	7434	1
12984	12991	12992	1
1415	12991	12984	1
12982	12983	12984	1
12984	12983	12987	1
12984	12985	12986	1
12984	12985	12988	1
12982	12993	12994	1
12982	12993	7432	1
12982	12983	12987	1
12982	12981	12986	1
12982	12981	12989	1
12983	12984	12985	1
12981	12982	12983	1
12981	12986	12985	1
12985	12986	12990	1
12981	12986	12990	1
12986	12985	12988	1
12986	12981	12989	1
1415	12991	12992	1
12994	12993	7432	1
8913	8912	8923	1
8911	8912	8923	1
8923	10272	10266	1
8923	10272	10273	1
8913	8914	8921	1
8915	8914	8921	1
8921	8931	8925	1
8921	8931	8932	1
8912	8923	8924	1
8912	8923	10272	1
8912	8913	8914	1
8912	8913	8917	1
8912	8911	8916	1
8912	8911	8919	1
8914	8921	8922	1
8914	8921	8931	1
8914	8913	8917	1
8914	8915	8916	1
8914	8915	8918	1
8911	8912	8913	1
8913	8914	8915	1
8911	8916	8915	1
8911	8916	8920	1
8915	8916	8920	1
8916	8911	8919	1
8916	8915	8918	1
8924	8923	10272	1
8922	8921	8931	1
9147	9148	9155	1
9149	9148	9155	1
9155	10204	10197	1
9155	10204	10206	1
9147	9146	9157	1
9145	9146	9157	1
9157	9165	9159	1
9157	9165	9166	1
9148	9155	9156	1
9148	9155	10204	1
9146	9147	9148	1
9148	9147	9151	1
9148	9149	9150	1
9148	9149	9152	1
9146	9157	9158	1
9146	9157	9165	1
9146	9147	9151	1
9146	9145	9150	1
9146	9145	9153	1
9147	9148	9149	1
9145	9146	9147	1
9145	9150	9149	1
9149	9150	9154	1
9145	9150	9154	1
9150	9149	9152	1
9150	9145	9153	1
9156	9155	10204	1
9158	9157	9165	1
13445	13444	13455	1
13443	13444	13455	1
13455	8806	8796	1
13455	8806	8808	1
13445	13446	13453	1
13447	13446	13453	1
1004	1011	13453	1
1013	1011	13453	1
13444	13455	13456	1
13444	13455	8806	1
13444	13445	13446	1
13444	13445	13449	1
13444	13443	13448	1
13444	13443	13451	1
13446	13453	13454	1
1011	13453	13446	1
13446	13445	13449	1
13446	13447	13448	1
13446	13447	13450	1
13443	13444	13445	1
13445	13446	13447	1
13443	13448	13447	1
13443	13448	13452	1
13447	13448	13452	1
13448	13443	13451	1
13448	13447	13450	1
13456	13455	8806	1
1011	13453	13454	1
3512	3513	3520	1
3514	3513	3520	1
3520	9768	9761	1
3520	9768	9770	1
3512	3511	3522	1
3510	3511	3522	1
3513	3520	3521	1
3513	3520	9768	1
3511	3512	3513	1
3513	3512	3516	1
3513	3514	3515	1
3513	3514	3517	1
3511	3522	3524	1
3511	3522	3523	1
3511	3512	3516	1
3511	3510	3515	1
3511	3510	3518	1
3512	3513	3514	1
3510	3511	3512	1
3510	3515	3514	1
3514	3515	3519	1
3510	3515	3519	1
3515	3514	3517	1
3515	3510	3518	1
3521	3520	9768	1
3523	3522	3524	1
12577	12576	12587	1
12575	12576	12587	1
12587	9083	9076	1
12587	9083	9085	1
12577	12578	12585	1
12579	12578	12585	1
12585	6311	6301	1
12585	6311	6313	1
12576	12587	12588	1
12576	12587	9083	1
12576	12577	12578	1
12576	12577	12581	1
12576	12575	12580	1
12576	12575	12583	1
12578	12585	12586	1
12578	12585	6311	1
12578	12577	12581	1
12578	12579	12580	1
12578	12579	12582	1
12575	12576	12577	1
12577	12578	12579	1
12575	12580	12579	1
12575	12580	12584	1
12579	12580	12584	1
12580	12575	12583	1
12580	12579	12582	1
12588	12587	9083	1
12586	12585	6311	1
13305	13304	13315	1
13303	13304	13315	1
13315	10306	10299	1
13315	10306	10308	1
13305	13306	13313	1
13307	13306	13313	1
13313	8263	8256	1
13313	8263	8265	1
13304	13315	13316	1
13304	13315	10306	1
13304	13305	13306	1
13304	13305	13309	1
13304	13303	13308	1
13304	13303	13311	1
13306	13313	13314	1
13306	13313	8263	1
13306	13305	13309	1
13306	13307	13308	1
13306	13307	13310	1
13303	13304	13305	1
13305	13306	13307	1
13303	13308	13307	1
13303	13308	13312	1
13307	13308	13312	1
13308	13303	13311	1
13308	13307	13310	1
13316	13315	10306	1
13314	13313	8263	1
7860	7859	7870	1
7858	7859	7870	1
7870	7878	7872	1
7870	7878	7879	1
7860	7861	7868	1
7862	7861	7868	1
7868	6369	6362	1
7868	6369	6371	1
7859	7870	7871	1
7859	7870	7878	1
7859	7860	7861	1
7859	7860	7864	1
7859	7858	7863	1
7859	7858	7866	1
7861	7868	7869	1
7861	7868	6369	1
7861	7860	7864	1
7861	7862	7863	1
7861	7862	7865	1
7858	7859	7860	1
7860	7861	7862	1
7858	7863	7862	1
7858	7863	7867	1
7862	7863	7867	1
7863	7858	7866	1
7863	7862	7865	1
7871	7870	7878	1
7869	7868	6369	1
12199	12198	12209	1
12197	12198	12209	1
12209	5902	5892	1
12209	5902	5904	1
12199	12200	12207	1
12201	12200	12207	1
12207	5640	5630	1
12207	5640	5642	1
12198	12209	12210	1
12198	12209	5902	1
12198	12199	12200	1
12198	12199	12203	1
12198	12197	12202	1
12198	12197	12205	1
12200	12207	12208	1
12200	12207	5640	1
12200	12199	12203	1
12200	12201	12202	1
12200	12201	12204	1
12197	12198	12199	1
12199	12200	12201	1
12197	12202	12201	1
12197	12202	12206	1
12201	12202	12206	1
12202	12197	12205	1
12202	12201	12204	1
12210	12209	5902	1
12208	12207	5640	1
11457	11456	11467	1
11455	11456	11467	1
11467	6996	6986	1
11467	6996	6998	1
11457	11458	11465	1
11459	11458	11465	1
11465	4286	4279	1
11465	4286	4288	1
11456	11467	11468	1
11456	11467	6996	1
11456	11457	11458	1
11456	11457	11461	1
11456	11455	11460	1
11456	11455	11463	1
11458	11465	11466	1
11458	11465	4286	1
11458	11457	11461	1
11458	11459	11460	1
11458	11459	11462	1
11455	11456	11457	1
11457	11458	11459	1
11455	11460	11459	1
11455	11460	11464	1
11459	11460	11464	1
11460	11455	11463	1
11460	11459	11462	1
11468	11467	6996	1
11466	11465	4286	1
13361	13360	13371	1
13359	13360	13371	1
13371	8382	8372	1
13371	8382	8384	1
13361	13362	13369	1
13363	13362	13369	1
479	486	13369	1
488	486	13369	1
13360	13371	13372	1
13360	13371	8382	1
13360	13361	13362	1
13360	13361	13365	1
13360	13359	13364	1
13360	13359	13367	1
13362	13369	13370	1
486	13369	13362	1
13362	13361	13365	1
13362	13363	13364	1
13362	13363	13366	1
13359	13360	13361	1
13361	13362	13363	1
13359	13364	13363	1
13359	13364	13368	1
13363	13364	13368	1
13364	13359	13367	1
13364	13363	13366	1
13372	13371	8382	1
486	13369	13370	1
4800	4799	4810	1
4798	4799	4810	1
2253	2259	4810	1
2260	2259	4810	1
4800	4801	4808	1
4802	4801	4808	1
4808	4818	4812	1
4808	4818	4819	1
4799	4810	4811	1
2259	4810	4799	1
4799	4800	4801	1
4799	4800	4804	1
4799	4798	4803	1
4799	4798	4806	1
4801	4808	4809	1
4801	4808	4818	1
4801	4800	4804	1
4801	4802	4803	1
4801	4802	4805	1
4798	4799	4800	1
4800	4801	4802	1
4798	4803	4802	1
4798	4803	4807	1
4802	4803	4807	1
4803	4798	4806	1
4803	4802	4805	1
2259	4810	4811	1
4809	4808	4818	1
181	180	191	1
179	180	191	1
168	170	191	1
171	170	191	1
181	182	189	1
183	182	189	1
189	6326	6316	1
189	6326	6328	1
180	191	192	1
170	191	180	1
180	181	182	1
180	181	185	1
180	179	184	1
180	179	187	1
182	189	190	1
182	189	6326	1
182	181	185	1
182	183	184	1
182	183	186	1
179	180	181	1
181	182	183	1
179	184	183	1
179	184	188	1
183	184	188	1
184	179	187	1
184	183	186	1
170	191	192	1
190	189	6326	1
5440	5439	5450	1
5438	5439	5450	1
5450	5458	5452	1
5450	5458	5459	1
5440	5441	5448	1
5442	5441	5448	1
5448	9725	9715	1
5448	9725	9727	1
5439	5450	5451	1
5439	5450	5458	1
5439	5440	5441	1
5439	5440	5444	1
5439	5438	5443	1
5439	5438	5446	1
5441	5448	5449	1
5441	5448	9725	1
5441	5440	5444	1
5441	5442	5443	1
5441	5442	5445	1
5438	5439	5440	1
5440	5441	5442	1
5438	5443	5442	1
5438	5443	5447	1
5442	5443	5447	1
5443	5438	5446	1
5443	5442	5445	1
5451	5450	5458	1
5449	5448	9725	1
6199	6198	6209	1
6197	6198	6209	1
6209	11009	11002	1
6209	11009	11011	1
6199	6200	6207	1
6201	6200	6207	1
6207	6217	6211	1
6207	6217	6218	1
6198	6209	6210	1
6198	6209	11009	1
6198	6199	6200	1
6198	6199	6203	1
6198	6197	6202	1
6198	6197	6205	1
6200	6207	6208	1
6200	6207	6217	1
6200	6199	6203	1
6200	6201	6202	1
6200	6201	6204	1
6197	6198	6199	1
6199	6200	6201	1
6197	6202	6201	1
6197	6202	6206	1
6201	6202	6206	1
6202	6197	6205	1
6202	6201	6204	1
6210	6209	11009	1
6208	6207	6217	1
2702	2701	2712	1
2700	2701	2712	1
2702	2703	2710	1
2704	2703	2710	1
2710	4534	4524	1
2710	4534	4536	1
2701	2712	2714	1
2701	2712	2713	1
2701	2702	2703	1
2701	2702	2706	1
2701	2700	2705	1
2701	2700	2708	1
2703	2710	2711	1
2703	2710	4534	1
2703	2702	2706	1
2703	2704	2705	1
2703	2704	2707	1
2700	2701	2702	1
2702	2703	2704	1
2700	2705	2704	1
2700	2705	2709	1
2704	2705	2709	1
2705	2700	2708	1
2705	2704	2707	1
2713	2712	2714	1
2711	2710	4534	1
12703	12702	12713	1
12701	12702	12713	1
12713	6587	6580	1
12713	6587	6589	1
12703	12704	12711	1
12705	12704	12711	1
12711	8161	8151	1
12711	8161	8163	1
12702	12713	12714	1
12702	12713	6587	1
12702	12703	12704	1
12702	12703	12707	1
12702	12701	12706	1
12702	12701	12709	1
12704	12711	12712	1
12704	12711	8161	1
12704	12703	12707	1
12704	12705	12706	1
12704	12705	12708	1
12701	12702	12703	1
12703	12704	12705	1
12701	12706	12705	1
12701	12706	12710	1
12705	12706	12710	1
12706	12701	12709	1
12706	12705	12708	1
12714	12713	6587	1
12712	12711	8161	1
3767	3766	3777	1
3765	3766	3777	1
3767	3768	3775	1
3769	3768	3775	1
2071	2073	3775	1
2074	2073	3775	1
3766	3777	3778	1
3766	3777	3779	1
3766	3767	3768	1
3766	3767	3771	1
3766	3765	3770	1
3766	3765	3773	1
3768	3775	3776	1
2073	3775	3768	1
3768	3767	3771	1
3768	3769	3770	1
3768	3769	3772	1
3765	3766	3767	1
3767	3768	3769	1
3765	3770	3769	1
3765	3770	3774	1
3769	3770	3774	1
3770	3765	3773	1
3770	3769	3772	1
3778	3777	3779	1
2073	3775	3776	1
13277	13276	13287	1
13275	13276	13287	1
13287	8248	8241	1
13287	8248	8250	1
13277	13278	13285	1
13279	13278	13285	1
1868	1875	13285	1
1877	1875	13285	1
13276	13287	13288	1
13276	13287	8248	1
13276	13277	13278	1
13276	13277	13281	1
13276	13275	13280	1
13276	13275	13283	1
13278	13285	13286	1
1875	13285	13278	1
13278	13277	13281	1
13278	13279	13280	1
13278	13279	13282	1
13275	13276	13277	1
13277	13278	13279	1
13275	13280	13279	1
13275	13280	13284	1
13279	13280	13284	1
13280	13275	13283	1
13280	13279	13282	1
13288	13287	8248	1
1875	13285	13286	1
2762	2763	2770	1
2764	2763	2770	1
2770	5100	5093	1
2770	5100	5102	1
2762	2761	2772	1
2760	2761	2772	1
2763	2770	2771	1
2763	2770	5100	1
2761	2762	2763	1
2763	2762	2766	1
2763	2764	2765	1
2763	2764	2767	1
2761	2772	2773	1
2761	2772	2774	1
2761	2762	2766	1
2761	2760	2765	1
2761	2760	2768	1
2762	2763	2764	1
2760	2761	2762	1
2760	2765	2764	1
2764	2765	2769	1
2760	2765	2769	1
2765	2764	2767	1
2765	2760	2768	1
2771	2770	5100	1
2773	2772	2774	1
9701	9700	9711	1
9699	9700	9711	1
9711	10233	10226	1
9711	10233	10235	1
9701	9702	9709	1
9703	9702	9709	1
9709	9719	9713	1
9709	9719	9720	1
9700	9711	9712	1
9700	9711	10233	1
9700	9701	9702	1
9700	9701	9705	1
9700	9699	9704	1
9700	9699	9707	1
9702	9709	9710	1
9702	9709	9719	1
9702	9701	9705	1
9702	9703	9704	1
9702	9703	9706	1
9699	9700	9701	1
9701	9702	9703	1
9699	9704	9703	1
9699	9704	9708	1
9703	9704	9708	1
9704	9699	9707	1
9704	9703	9706	1
9712	9711	10233	1
9710	9709	9719	1
12283	12284	12291	1
12285	12284	12291	1
12291	5799	5792	1
12291	5799	5801	1
12283	12282	12293	1
12281	12282	12293	1
12293	7258	7248	1
12293	7258	7260	1
12284	12291	12292	1
12284	12291	5799	1
12284	12283	12282	1
12284	12283	12287	1
12284	12285	12286	1
12284	12285	12288	1
12282	12293	12294	1
12282	12293	7258	1
12282	12283	12287	1
12282	12281	12286	1
12282	12281	12289	1
12285	12284	12283	1
12283	12282	12281	1
12285	12286	12281	1
12285	12286	12290	1
12281	12286	12290	1
12286	12285	12288	1
12286	12281	12289	1
12292	12291	5799	1
12294	12293	7258	1
13095	13094	13105	1
13093	13094	13105	1
13105	9281	9275	1
13105	9281	9282	1
13095	13096	13103	1
13097	13096	13103	1
13103	7796	7789	1
13103	7796	7798	1
13094	13105	13106	1
13094	13105	9281	1
13094	13095	13096	1
13094	13095	13099	1
13094	13093	13098	1
13094	13093	13101	1
13096	13103	13104	1
13096	13103	7796	1
13096	13095	13099	1
13096	13097	13098	1
13096	13097	13100	1
13093	13094	13095	1
13095	13096	13097	1
13093	13098	13097	1
13093	13098	13102	1
13097	13098	13102	1
13098	13093	13101	1
13098	13097	13100	1
13106	13105	9281	1
13104	13103	7796	1
6462	6461	6472	1
6460	6461	6472	1
6472	4476	4466	1
6472	4476	4478	1
6462	6463	6470	1
6464	6463	6470	1
6470	6480	6474	1
6470	6480	6481	1
6461	6472	6473	1
6461	6472	4476	1
6461	6462	6463	1
6461	6462	6466	1
6461	6460	6465	1
6461	6460	6468	1
6463	6470	6471	1
6463	6470	6480	1
6463	6462	6466	1
6463	6464	6465	1
6463	6464	6467	1
6460	6461	6462	1
6462	6463	6464	1
6460	6465	6464	1
6460	6465	6469	1
6464	6465	6469	1
6465	6460	6468	1
6465	6464	6467	1
6473	6472	4476	1
6471	6470	6480	1
6797	6796	6807	1
6795	6796	6807	1
6807	10278	10268	1
6807	10278	10280	1
6797	6798	6805	1
6799	6798	6805	1
6805	6815	6809	1
6805	6815	6816	1
6796	6807	6808	1
6796	6807	10278	1
6796	6797	6798	1
6796	6797	6801	1
6796	6795	6800	1
6796	6795	6803	1
6798	6805	6806	1
6798	6805	6815	1
6798	6797	6801	1
6798	6799	6800	1
6798	6799	6802	1
6795	6796	6797	1
6797	6798	6799	1
6795	6800	6799	1
6795	6800	6804	1
6799	6800	6804	1
6800	6795	6803	1
6800	6799	6802	1
6808	6807	10278	1
6806	6805	6815	1
2822	2823	2830	1
2824	2823	2830	1
2830	5473	5467	1
2830	5473	5474	1
2822	2821	2832	1
2820	2821	2832	1
2823	2830	2831	1
2823	2830	5473	1
2821	2822	2823	1
2823	2822	2826	1
2823	2824	2825	1
2823	2824	2827	1
2821	2832	2834	1
2821	2832	2833	1
2821	2822	2826	1
2821	2820	2825	1
2821	2820	2828	1
2822	2823	2824	1
2820	2821	2822	1
2820	2825	2824	1
2824	2825	2829	1
2820	2825	2829	1
2825	2824	2827	1
2825	2820	2828	1
2831	2830	5473	1
2833	2832	2834	1
1620	1619	1630	1
1618	1619	1630	1
1630	6398	6391	1
1630	6398	6400	1
1620	1621	1628	1
1622	1621	1628	1
1634	1632	1628	1
1633	1632	1628	1
1619	1630	1631	1
1619	1630	6398	1
1619	1620	1621	1
1619	1620	1624	1
1619	1618	1623	1
1619	1618	1626	1
1621	1628	1629	1
1632	1628	1621	1
1621	1620	1624	1
1621	1622	1623	1
1621	1622	1625	1
1618	1619	1620	1
1620	1621	1622	1
1618	1623	1622	1
1618	1623	1627	1
1622	1623	1627	1
1623	1618	1626	1
1623	1622	1625	1
1631	1630	6398	1
1632	1628	1629	1
7321	7320	7331	1
7319	7320	7331	1
7331	7339	7333	1
7331	7339	7340	1
7321	7322	7329	1
7323	7322	7329	1
7329	8731	8724	1
7329	8731	8733	1
7320	7331	7332	1
7320	7331	7339	1
7320	7321	7322	1
7320	7321	7325	1
7320	7319	7324	1
7320	7319	7327	1
7322	7329	7330	1
7322	7329	8731	1
7322	7321	7325	1
7322	7323	7324	1
7322	7323	7326	1
7319	7320	7321	1
7321	7322	7323	1
7319	7324	7323	1
7319	7324	7328	1
7323	7324	7328	1
7324	7319	7327	1
7324	7323	7326	1
7332	7331	7339	1
7330	7329	8731	1
12507	12506	12517	1
12505	12506	12517	1
12517	10526	10519	1
12517	10526	10528	1
12507	12508	12515	1
12509	12508	12515	1
12515	6194	6184	1
12515	6194	6196	1
12506	12517	12518	1
12506	12517	10526	1
12506	12507	12508	1
12506	12507	12511	1
12506	12505	12510	1
12506	12505	12513	1
12508	12515	12516	1
12508	12515	6194	1
12508	12507	12511	1
12508	12509	12510	1
12508	12509	12512	1
12505	12506	12507	1
12507	12508	12509	1
12505	12510	12509	1
12505	12510	12514	1
12509	12510	12514	1
12510	12505	12513	1
12510	12509	12512	1
12518	12517	10526	1
12516	12515	6194	1
1142	1143	1150	1
1144	1143	1150	1
1123	1129	1150	1
1130	1129	1150	1
1142	1141	1152	1
1140	1141	1152	1
1152	6747	6740	1
1152	6747	6749	1
1143	1150	1151	1
1129	1150	1143	1
1141	1142	1143	1
1143	1142	1146	1
1143	1144	1145	1
1143	1144	1147	1
1141	1152	1153	1
1141	1152	6747	1
1141	1142	1146	1
1141	1140	1145	1
1141	1140	1148	1
1142	1143	1144	1
1140	1141	1142	1
1140	1145	1144	1
1144	1145	1149	1
1140	1145	1149	1
1145	1144	1147	1
1145	1140	1148	1
1129	1150	1151	1
1153	1152	6747	1
11303	11302	11313	1
11301	11302	11313	1
11313	4069	4059	1
11313	4069	4071	1
11303	11304	11311	1
11305	11304	11311	1
11311	6820	6813	1
11311	6820	6822	1
11302	11313	11314	1
11302	11313	4069	1
11302	11303	11304	1
11302	11303	11307	1
11302	11301	11306	1
11302	11301	11309	1
11304	11311	11312	1
11304	11311	6820	1
11304	11303	11307	1
11304	11305	11306	1
11304	11305	11308	1
11301	11302	11303	1
11303	11304	11305	1
11301	11306	11305	1
11301	11306	11310	1
11305	11306	11310	1
11306	11301	11309	1
11306	11305	11308	1
11314	11313	4069	1
11312	11311	6820	1
1050	1049	1060	1
1048	1049	1060	1
1031	1037	1060	1
1038	1037	1060	1
1050	1051	1058	1
1052	1051	1058	1
1154	1160	1058	1
1161	1160	1058	1
1049	1060	1061	1
1037	1060	1049	1
1049	1050	1051	1
1049	1050	1054	1
1049	1048	1053	1
1049	1048	1056	1
1051	1058	1059	1
1160	1058	1051	1
1051	1050	1054	1
1051	1052	1053	1
1051	1052	1055	1
1048	1049	1050	1
1050	1051	1052	1
1048	1053	1052	1
1048	1053	1057	1
1052	1053	1057	1
1053	1048	1056	1
1053	1052	1055	1
1037	1060	1061	1
1160	1058	1059	1
13193	13192	13203	1
13191	13192	13203	1
13203	8557	8547	1
13203	8557	8559	1
13193	13194	13201	1
13195	13194	13201	1
13201	8131	8124	1
13201	8131	8133	1
13192	13203	13204	1
13192	13203	8557	1
13192	13193	13194	1
13192	13193	13197	1
13192	13191	13196	1
13192	13191	13199	1
13194	13201	13202	1
13194	13201	8131	1
13194	13193	13197	1
13194	13195	13196	1
13194	13195	13198	1
13191	13192	13193	1
13193	13194	13195	1
13191	13196	13195	1
13191	13196	13200	1
13195	13196	13200	1
13196	13191	13199	1
13196	13195	13198	1
13204	13203	8557	1
13202	13201	8131	1
8284	8285	8292	1
8286	8285	8292	1
8292	8302	8296	1
8292	8302	8303	1
8284	8283	8294	1
8282	8283	8294	1
8294	11078	11072	1
8294	11078	11079	1
8285	8292	8293	1
8285	8292	8302	1
8285	8284	8283	1
8285	8284	8288	1
8285	8286	8287	1
8285	8286	8289	1
8283	8294	8295	1
8283	8294	11078	1
8283	8284	8288	1
8283	8282	8287	1
8283	8282	8290	1
8286	8285	8284	1
8284	8283	8282	1
8286	8287	8282	1
8286	8287	8291	1
8282	8287	8291	1
8287	8286	8289	1
8287	8282	8290	1
8293	8292	8302	1
8295	8294	11078	1
9350	9349	9360	1
9348	9349	9360	1
9360	9368	9362	1
9360	9368	9369	1
9350	9351	9358	1
9352	9351	9358	1
9358	9171	9161	1
9358	9171	9173	1
9349	9360	9361	1
9349	9360	9368	1
9349	9350	9351	1
9349	9350	9354	1
9349	9348	9353	1
9349	9348	9356	1
9351	9358	9359	1
9351	9358	9171	1
9351	9350	9354	1
9351	9352	9353	1
9351	9352	9355	1
9348	9349	9350	1
9350	9351	9352	1
9348	9353	9352	1
9348	9353	9357	1
9352	9353	9357	1
9353	9348	9356	1
9353	9352	9355	1
9361	9360	9368	1
9359	9358	9171	1
5878	5877	5888	1
5876	5877	5888	1
5888	8264	8254	1
5888	8264	8266	1
5878	5879	5886	1
5880	5879	5886	1
5886	5896	5890	1
5886	5896	5897	1
5877	5888	5889	1
5877	5888	8264	1
5877	5878	5879	1
5877	5878	5882	1
5877	5876	5881	1
5877	5876	5884	1
5879	5886	5887	1
5879	5886	5896	1
5879	5878	5882	1
5879	5880	5881	1
5879	5880	5883	1
5876	5877	5878	1
5878	5879	5880	1
5876	5881	5880	1
5876	5881	5885	1
5880	5881	5885	1
5881	5876	5884	1
5881	5880	5883	1
5889	5888	8264	1
5887	5886	5896	1
2882	2881	2892	1
2880	2881	2892	1
2882	2883	2890	1
2884	2883	2890	1
2890	5770	5763	1
2890	5770	5772	1
2881	2892	2893	1
2881	2892	2894	1
2881	2882	2883	1
2881	2882	2886	1
2881	2880	2885	1
2881	2880	2888	1
2883	2890	2891	1
2883	2890	5770	1
2883	2882	2886	1
2883	2884	2885	1
2883	2884	2887	1
2880	2881	2882	1
2882	2883	2884	1
2880	2885	2884	1
2880	2885	2889	1
2884	2885	2889	1
2885	2880	2888	1
2885	2884	2887	1
2893	2892	2894	1
2891	2890	5770	1
4873	4872	4883	1
4871	4872	4883	1
4883	4891	4885	1
4883	4891	4892	1
4873	4874	4881	1
4875	4874	4881	1
4881	10335	10328	1
4881	10335	10337	1
4872	4883	4884	1
4872	4883	4891	1
4872	4873	4874	1
4872	4873	4877	1
4872	4871	4876	1
4872	4871	4879	1
4874	4881	4882	1
4874	4881	10335	1
4874	4873	4877	1
4874	4875	4876	1
4874	4875	4878	1
4871	4872	4873	1
4873	4874	4875	1
4871	4876	4875	1
4871	4876	4880	1
4875	4876	4880	1
4876	4871	4879	1
4876	4875	4878	1
4884	4883	4891	1
4882	4881	10335	1
7045	7046	7053	1
7047	7046	7053	1
7053	6457	6447	1
7053	6457	6459	1
7045	7044	7055	1
7043	7044	7055	1
7055	7063	7057	1
7055	7063	7064	1
7046	7053	7054	1
7046	7053	6457	1
7046	7045	7044	1
7046	7045	7049	1
7046	7047	7048	1
7046	7047	7050	1
7044	7055	7056	1
7044	7055	7063	1
7044	7045	7049	1
7044	7043	7048	1
7044	7043	7051	1
7047	7046	7045	1
7045	7044	7043	1
7047	7048	7043	1
7047	7048	7052	1
7043	7048	7052	1
7048	7047	7050	1
7048	7043	7051	1
7054	7053	6457	1
7056	7055	7063	1
12521	12520	12531	1
12519	12520	12531	1
12531	6222	6215	1
12531	6222	6224	1
12521	12522	12529	1
12523	12522	12529	1
12529	9797	9790	1
12529	9797	9799	1
12520	12531	12532	1
12520	12531	6222	1
12520	12521	12522	1
12520	12521	12525	1
12520	12519	12524	1
12520	12519	12527	1
12522	12529	12530	1
12522	12529	9797	1
12522	12521	12525	1
12522	12523	12524	1
12522	12523	12526	1
12519	12520	12521	1
12521	12522	12523	1
12519	12524	12523	1
12519	12524	12528	1
12523	12524	12528	1
12524	12519	12527	1
12524	12523	12526	1
12532	12531	6222	1
12530	12529	9797	1
9205	9204	9215	1
9203	9204	9215	1
9215	9223	9217	1
9215	9223	9224	1
9205	9206	9213	1
9207	9206	9213	1
9213	10586	10576	1
9213	10586	10588	1
9204	9215	9216	1
9204	9215	9223	1
9204	9205	9206	1
9204	9205	9209	1
9204	9203	9208	1
9204	9203	9211	1
9206	9213	9214	1
9206	9213	10586	1
9206	9205	9209	1
9206	9207	9208	1
9206	9207	9210	1
9203	9204	9205	1
9205	9206	9207	1
9203	9208	9207	1
9203	9208	9212	1
9207	9208	9212	1
9208	9203	9211	1
9208	9207	9210	1
9216	9215	9223	1
9214	9213	10586	1
7686	7685	7696	1
7684	7685	7696	1
7696	7704	7698	1
7696	7704	7705	1
7686	7687	7694	1
7688	7687	7694	1
7694	10551	10545	1
7694	10551	10552	1
7685	7696	7697	1
7685	7696	7704	1
7685	7686	7687	1
7685	7686	7690	1
7685	7684	7689	1
7685	7684	7692	1
7687	7694	7695	1
7687	7694	10551	1
7687	7686	7690	1
7687	7688	7689	1
7687	7688	7691	1
7684	7685	7686	1
7686	7687	7688	1
7684	7689	7688	1
7684	7689	7693	1
7688	7689	7693	1
7689	7684	7692	1
7689	7688	7691	1
7697	7696	7704	1
7695	7694	10551	1
3452	3453	3460	1
3454	3453	3460	1
3460	9549	9539	1
3460	9549	9551	1
3452	3451	3462	1
3450	3451	3462	1
3453	3460	3461	1
3453	3460	9549	1
3451	3452	3453	1
3453	3452	3456	1
3453	3454	3455	1
3453	3454	3457	1
3451	3462	3464	1
3451	3462	3463	1
3451	3452	3456	1
3451	3450	3455	1
3451	3450	3458	1
3452	3453	3454	1
3450	3451	3452	1
3450	3455	3454	1
3454	3455	3459	1
3450	3455	3459	1
3455	3454	3457	1
3455	3450	3458	1
3461	3460	9549	1
3463	3462	3464	1
11849	11848	11859	1
11847	11848	11859	1
11859	6923	6913	1
11859	6923	6925	1
11849	11850	11857	1
11851	11850	11857	1
11857	4984	4974	1
11857	4984	4986	1
11848	11859	11860	1
11848	11859	6923	1
11848	11849	11850	1
11848	11849	11853	1
11848	11847	11852	1
11848	11847	11855	1
11850	11857	11858	1
11850	11857	4984	1
11850	11849	11853	1
11850	11851	11852	1
11850	11851	11854	1
11847	11848	11849	1
11849	11850	11851	1
11847	11852	11851	1
11847	11852	11856	1
11851	11852	11856	1
11852	11847	11855	1
11852	11851	11854	1
11860	11859	6923	1
11858	11857	4984	1
3752	3753	3760	1
3754	3753	3760	1
3760	11171	11164	1
3760	11171	11173	1
3752	3751	3762	1
3750	3751	3762	1
3753	3760	3761	1
3753	3760	11171	1
3751	3752	3753	1
3753	3752	3756	1
3753	3754	3755	1
3753	3754	3757	1
3751	3762	3764	1
3751	3762	3763	1
3751	3752	3756	1
3751	3750	3755	1
3751	3750	3758	1
3752	3753	3754	1
3750	3751	3752	1
3750	3755	3754	1
3754	3755	3759	1
3750	3755	3759	1
3755	3754	3757	1
3755	3750	3758	1
3761	3760	11171	1
3764	3762	3763	1
3482	3481	3492	1
3480	3481	3492	1
3482	3483	3490	1
3484	3483	3490	1
3490	9593	9583	1
3490	9593	9595	1
3481	3492	3493	1
3481	3492	3494	1
3481	3482	3483	1
3481	3482	3486	1
3481	3480	3485	1
3481	3480	3488	1
3483	3490	3491	1
3483	3490	9593	1
3483	3482	3486	1
3483	3484	3485	1
3483	3484	3487	1
3480	3481	3482	1
3482	3483	3484	1
3480	3485	3484	1
3480	3485	3489	1
3484	3485	3489	1
3485	3480	3488	1
3485	3484	3487	1
3493	3492	3494	1
3491	3490	9593	1
2241	2242	2249	1
2243	2242	2249	1
2222	2228	2249	1
2229	2228	2249	1
2241	2240	2251	1
2239	2240	2251	1
2251	9558	9552	1
2251	9558	9559	1
2242	2249	2250	1
2228	2249	2242	1
2240	2241	2242	1
2242	2241	2245	1
2242	2243	2244	1
2242	2243	2246	1
2240	2251	2252	1
2240	2251	9558	1
2240	2241	2245	1
2240	2239	2244	1
2240	2239	2247	1
2241	2242	2243	1
2239	2240	2241	1
2239	2244	2243	1
2243	2244	2248	1
2239	2244	2248	1
2244	2243	2246	1
2244	2239	2247	1
2228	2249	2250	1
2252	2251	9558	1
3871	3870	3881	1
3869	3870	3881	1
3881	7500	7494	1
3881	7500	7501	1
3871	3872	3879	1
3873	3872	3879	1
3879	3889	3883	1
3879	3889	3890	1
3870	3881	3882	1
3870	3881	7500	1
3870	3871	3872	1
3870	3871	3875	1
3870	3869	3874	1
3870	3869	3877	1
3872	3879	3880	1
3872	3879	3889	1
3872	3871	3875	1
3872	3873	3874	1
3872	3873	3876	1
3869	3870	3871	1
3871	3872	3873	1
3869	3874	3873	1
3869	3874	3878	1
3873	3874	3878	1
3874	3869	3877	1
3874	3873	3876	1
3882	3881	7500	1
3880	3879	3889	1
12451	12450	12461	1
12449	12450	12461	1
12461	6456	6449	1
12461	6456	6458	1
12451	12452	12459	1
12453	12452	12459	1
12459	6019	6012	1
12459	6019	6021	1
12450	12461	12462	1
12450	12461	6456	1
12450	12451	12452	1
12450	12451	12455	1
12450	12449	12454	1
12450	12449	12457	1
12452	12459	12460	1
12452	12459	6019	1
12452	12451	12455	1
12452	12453	12454	1
12452	12453	12456	1
12449	12450	12451	1
12451	12452	12453	1
12449	12454	12453	1
12449	12454	12458	1
12453	12454	12458	1
12454	12449	12457	1
12454	12453	12456	1
12462	12461	6456	1
12460	12459	6019	1
8504	8503	8514	1
8502	8503	8514	1
8514	9441	9435	1
8514	9441	9442	1
8504	8505	8512	1
8506	8505	8512	1
8512	8522	8516	1
8512	8522	8523	1
8503	8514	8515	1
8503	8514	9441	1
8503	8504	8505	1
8503	8504	8508	1
8503	8502	8507	1
8503	8502	8510	1
8505	8512	8513	1
8505	8512	8522	1
8505	8504	8508	1
8505	8506	8507	1
8505	8506	8509	1
8502	8503	8504	1
8504	8505	8506	1
8502	8507	8506	1
8502	8507	8511	1
8506	8507	8511	1
8507	8502	8510	1
8507	8506	8509	1
8515	8514	9441	1
8513	8512	8522	1
11751	11750	11761	1
11749	11750	11761	1
11761	4823	4816	1
11761	4823	4825	1
11751	11752	11759	1
11753	11752	11759	1
11759	10585	10578	1
11759	10585	10587	1
11750	11761	11762	1
11750	11761	4823	1
11750	11751	11752	1
11750	11751	11755	1
11750	11749	11754	1
11750	11749	11757	1
11752	11759	11760	1
11752	11759	10585	1
11752	11751	11755	1
11752	11753	11754	1
11752	11753	11756	1
11749	11750	11751	1
11751	11752	11753	1
11749	11754	11753	1
11749	11754	11758	1
11753	11754	11758	1
11754	11749	11757	1
11754	11753	11756	1
11762	11761	4823	1
11760	11759	10585	1
13431	13430	13441	1
13429	13430	13441	1
13441	8674	8664	1
13441	8674	8676	1
13431	13432	13439	1
13433	13432	13439	1
13439	10477	10471	1
13439	10477	10478	1
13430	13441	13442	1
13430	13441	8674	1
13430	13431	13432	1
13430	13431	13435	1
13430	13429	13434	1
13430	13429	13437	1
13432	13439	13440	1
13432	13439	10477	1
13432	13431	13435	1
13432	13433	13434	1
13432	13433	13436	1
13429	13430	13431	1
13431	13432	13433	1
13429	13434	13433	1
13429	13434	13438	1
13433	13434	13438	1
13434	13429	13437	1
13434	13433	13436	1
13442	13441	8674	1
13440	13439	10477	1
3107	3108	3115	1
3109	3108	3115	1
3115	7826	7816	1
3115	7826	7828	1
3107	3106	3117	1
3105	3106	3117	1
3108	3115	3116	1
3108	3115	7826	1
3106	3107	3108	1
3108	3107	3111	1
3108	3109	3110	1
3108	3109	3112	1
3106	3117	3118	1
3106	3117	3119	1
3106	3107	3111	1
3106	3105	3110	1
3106	3105	3113	1
3107	3108	3109	1
3105	3106	3107	1
3105	3110	3109	1
3109	3110	3114	1
3105	3110	3114	1
3110	3109	3112	1
3110	3105	3113	1
3116	3115	7826	1
3118	3117	3119	1
3617	3616	3627	1
3615	3616	3627	1
3617	3618	3625	1
3619	3618	3625	1
3625	10789	10782	1
3625	10789	10791	1
3616	3627	3629	1
3616	3627	3628	1
3616	3617	3618	1
3616	3617	3621	1
3616	3615	3620	1
3616	3615	3623	1
3618	3625	3626	1
3618	3625	10789	1
3618	3617	3621	1
3618	3619	3620	1
3618	3619	3622	1
3615	3616	3617	1
3617	3618	3619	1
3615	3620	3619	1
3615	3620	3624	1
3619	3620	3624	1
3620	3615	3623	1
3620	3619	3622	1
3629	3627	3628	1
3626	3625	10789	1
12059	12058	12069	1
12057	12058	12069	1
12069	7825	7818	1
12069	7825	7827	1
12059	12060	12067	1
12061	12060	12067	1
12067	5479	5469	1
12067	5479	5481	1
12058	12069	12070	1
12058	12069	7825	1
12058	12059	12060	1
12058	12059	12063	1
12058	12057	12062	1
12058	12057	12065	1
12060	12067	12068	1
12060	12067	5479	1
12060	12059	12063	1
12060	12061	12062	1
12060	12061	12064	1
12057	12058	12059	1
12059	12060	12061	1
12057	12062	12061	1
12057	12062	12066	1
12061	12062	12066	1
12062	12057	12065	1
12062	12061	12064	1
12070	12069	7825	1
12068	12067	5479	1
13165	13166	13173	1
13167	13166	13173	1
13173	8630	8620	1
13173	8630	8632	1
13165	13164	13175	1
13163	13164	13175	1
13175	7986	7976	1
13175	7986	7988	1
13166	13173	13174	1
13166	13173	8630	1
13164	13165	13166	1
13166	13165	13169	1
13166	13167	13168	1
13166	13167	13170	1
13164	13175	13176	1
13164	13175	7986	1
13164	13165	13169	1
13164	13163	13168	1
13164	13163	13171	1
13165	13166	13167	1
13163	13164	13165	1
13163	13168	13167	1
13167	13168	13172	1
13163	13168	13172	1
13168	13167	13170	1
13168	13163	13171	1
13174	13173	8630	1
13176	13175	7986	1
6054	6053	6064	1
6052	6053	6064	1
6064	6072	6066	1
6064	6072	6073	1
6054	6055	6062	1
6056	6055	6062	1
6062	6320	6314	1
6062	6320	6321	1
6053	6064	6065	1
6053	6064	6072	1
6053	6054	6055	1
6053	6054	6058	1
6053	6052	6057	1
6053	6052	6060	1
6055	6062	6063	1
6055	6062	6320	1
6055	6054	6058	1
6055	6056	6057	1
6055	6056	6059	1
6052	6053	6054	1
6054	6055	6056	1
6052	6057	6056	1
6052	6057	6061	1
6056	6057	6061	1
6057	6052	6060	1
6057	6056	6059	1
6065	6064	6072	1
6063	6062	6320	1
3542	3543	3550	1
3544	3543	3550	1
3550	9928	9921	1
3550	9928	9930	1
3542	3541	3552	1
3540	3541	3552	1
3543	3550	3551	1
3543	3550	9928	1
3541	3542	3543	1
3543	3542	3546	1
3543	3544	3545	1
3543	3544	3547	1
3541	3552	3553	1
3541	3552	3554	1
3541	3542	3546	1
3541	3540	3545	1
3541	3540	3548	1
3542	3543	3544	1
3540	3541	3542	1
3540	3545	3544	1
3544	3545	3549	1
3540	3545	3549	1
3545	3544	3547	1
3545	3540	3548	1
3551	3550	9928	1
3553	3552	3554	1
8431	8430	8441	1
8429	8430	8441	1
8441	8449	8443	1
8441	8449	8450	1
8431	8432	8439	1
8433	8432	8439	1
8439	5625	5615	1
8439	5625	5627	1
8430	8441	8442	1
8430	8441	8449	1
8430	8431	8432	1
8430	8431	8435	1
8430	8429	8434	1
8430	8429	8437	1
8432	8439	8440	1
8432	8439	5625	1
8432	8431	8435	1
8432	8433	8434	1
8432	8433	8436	1
8429	8430	8431	1
8431	8432	8433	1
8429	8434	8433	1
8429	8434	8438	1
8433	8434	8438	1
8434	8429	8437	1
8434	8433	8436	1
8442	8441	8449	1
8440	8439	5625	1
7467	7468	7475	1
7469	7468	7475	1
7475	8317	8311	1
7475	8317	8318	1
7467	7466	7477	1
7465	7466	7477	1
7477	7485	7479	1
7477	7485	7486	1
7468	7475	7476	1
7468	7475	8317	1
7468	7467	7466	1
7468	7467	7471	1
7468	7469	7470	1
7468	7469	7472	1
7466	7477	7478	1
7466	7477	7485	1
7466	7467	7471	1
7466	7465	7470	1
7466	7465	7473	1
7469	7468	7467	1
7467	7466	7465	1
7469	7470	7465	1
7469	7470	7474	1
7465	7470	7474	1
7470	7469	7472	1
7470	7465	7473	1
7476	7475	8317	1
7478	7477	7485	1
13263	13264	13271	1
13265	13264	13271	1
13271	10862	10855	1
13271	10862	10864	1
13263	13262	13273	1
13261	13262	13273	1
13273	8204	8197	1
13273	8204	8206	1
13264	13271	13272	1
13264	13271	10862	1
13262	13263	13264	1
13264	13263	13267	1
13264	13265	13266	1
13264	13265	13268	1
13262	13273	13274	1
13262	13273	8204	1
13262	13263	13267	1
13262	13261	13266	1
13262	13261	13269	1
13263	13264	13265	1
13261	13262	13263	1
13261	13266	13265	1
13265	13266	13270	1
13261	13266	13270	1
13266	13265	13268	1
13266	13261	13269	1
13272	13271	10862	1
13274	13273	8204	1
4597	4596	4607	1
4595	4596	4607	1
4607	4615	4609	1
4607	4615	4616	1
4597	4598	4605	1
4599	4598	4605	1
4605	6232	6226	1
4605	6232	6233	1
4596	4607	4608	1
4596	4607	4615	1
4596	4597	4598	1
4596	4597	4601	1
4596	4595	4600	1
4596	4595	4603	1
4598	4605	4606	1
4598	4605	6232	1
4598	4597	4601	1
4598	4599	4600	1
4598	4599	4602	1
4595	4596	4597	1
4597	4598	4599	1
4595	4600	4599	1
4595	4600	4604	1
4599	4600	4604	1
4600	4595	4603	1
4600	4599	4602	1
4608	4607	4615	1
4606	4605	6232	1
13739	13740	13747	1
13741	13740	13747	1
13747	11084	11074	1
13747	11084	11086	1
13739	13738	13749	1
13737	13738	13749	1
13749	10935	10928	1
13749	10935	10937	1
13740	13747	13748	1
13740	13747	11084	1
13738	13739	13740	1
13740	13739	13743	1
13740	13741	13742	1
13740	13741	13744	1
13738	13749	13750	1
13738	13749	10935	1
13738	13739	13743	1
13738	13737	13742	1
13738	13737	13745	1
13739	13740	13741	1
13737	13738	13739	1
13737	13742	13741	1
13741	13742	13746	1
13737	13742	13746	1
13742	13741	13744	1
13742	13737	13745	1
13748	13747	11084	1
13750	13749	10935	1
13249	13248	13259	1
13247	13248	13259	1
13259	10760	10753	1
13259	10760	10762	1
13249	13250	13257	1
13251	13250	13257	1
13257	8205	8195	1
13257	8205	8207	1
13248	13259	13260	1
13248	13259	10760	1
13248	13249	13250	1
13248	13249	13253	1
13248	13247	13252	1
13248	13247	13255	1
13250	13257	13258	1
13250	13257	8205	1
13250	13249	13253	1
13250	13251	13252	1
13250	13251	13254	1
13247	13248	13249	1
13249	13250	13251	1
13247	13252	13251	1
13247	13252	13256	1
13251	13252	13256	1
13252	13247	13255	1
13252	13251	13254	1
13260	13259	10760	1
13258	13257	8205	1
2039	2038	2049	1
2037	2038	2049	1
2020	2026	2049	1
2027	2026	2049	1
2039	2040	2047	1
2041	2040	2047	1
2047	10746	10736	1
2047	10746	10748	1
2038	2049	2050	1
2026	2049	2038	1
2038	2039	2040	1
2038	2039	2043	1
2038	2037	2042	1
2038	2037	2045	1
2040	2047	2048	1
2040	2047	10746	1
2040	2039	2043	1
2040	2041	2042	1
2040	2041	2044	1
2037	2038	2039	1
2039	2040	2041	1
2037	2042	2041	1
2037	2042	2046	1
2041	2042	2046	1
2042	2037	2045	1
2042	2041	2044	1
2026	2049	2050	1
2048	2047	10746	1
12045	12046	12053	1
12047	12046	12053	1
12053	5464	5454	1
12053	5464	5466	1
12045	12044	12055	1
12043	12044	12055	1
12055	10395	10385	1
12055	10395	10397	1
12046	12053	12054	1
12046	12053	5464	1
12046	12045	12044	1
12046	12045	12049	1
12046	12047	12048	1
12046	12047	12050	1
12044	12055	12056	1
12044	12055	10395	1
12044	12045	12049	1
12044	12043	12048	1
12044	12043	12051	1
12047	12046	12045	1
12045	12044	12043	1
12047	12048	12043	1
12047	12048	12052	1
12043	12048	12052	1
12048	12047	12050	1
12048	12043	12051	1
12054	12053	5464	1
12056	12055	10395	1
4481	4480	4491	1
4479	4480	4491	1
4491	8528	8518	1
4491	8528	8530	1
4481	4482	4489	1
4483	4482	4489	1
4489	4499	4493	1
4489	4499	4500	1
4480	4491	4492	1
4480	4491	8528	1
4480	4481	4482	1
4480	4481	4485	1
4480	4479	4484	1
4480	4479	4487	1
4482	4489	4490	1
4482	4489	4499	1
4482	4481	4485	1
4482	4483	4484	1
4482	4483	4486	1
4479	4480	4481	1
4481	4482	4483	1
4479	4484	4483	1
4479	4484	4488	1
4483	4484	4488	1
4484	4479	4487	1
4484	4483	4486	1
4492	4491	8528	1
4490	4489	4499	1
926	927	934	1
928	927	934	1
934	8214	8208	1
934	8214	8215	1
926	925	936	1
924	925	936	1
907	913	936	1
914	913	936	1
927	934	935	1
927	934	8214	1
925	926	927	1
927	926	930	1
927	928	929	1
927	928	931	1
925	936	937	1
913	936	925	1
925	926	930	1
925	924	929	1
925	924	932	1
926	927	928	1
924	925	926	1
924	929	928	1
928	929	933	1
924	929	933	1
929	928	931	1
929	924	932	1
935	934	8214	1
913	936	937	1
2912	2911	2922	1
2910	2911	2922	1
2912	2913	2920	1
2914	2913	2920	1
2920	6005	5995	1
2920	6005	6007	1
2911	2922	2923	1
2911	2922	2924	1
2911	2912	2913	1
2911	2912	2916	1
2911	2910	2915	1
2911	2910	2918	1
2913	2920	2921	1
2913	2920	6005	1
2913	2912	2916	1
2913	2914	2915	1
2913	2914	2917	1
2910	2911	2912	1
2912	2913	2914	1
2910	2915	2914	1
2910	2915	2919	1
2914	2915	2919	1
2915	2910	2918	1
2915	2914	2917	1
2923	2922	2924	1
2921	2920	6005	1
5981	5980	5991	1
5979	5980	5991	1
5991	5999	5993	1
5991	5999	6000	1
5981	5982	5989	1
5983	5982	5989	1
5989	6282	6272	1
5989	6282	6284	1
5980	5991	5992	1
5980	5991	5999	1
5980	5981	5982	1
5980	5981	5985	1
5980	5979	5984	1
5980	5979	5987	1
5982	5989	5990	1
5982	5989	6282	1
5982	5981	5985	1
5982	5983	5984	1
5982	5983	5986	1
5979	5980	5981	1
5981	5982	5983	1
5979	5984	5983	1
5979	5984	5988	1
5983	5984	5988	1
5984	5979	5987	1
5984	5983	5986	1
5992	5991	5999	1
5990	5989	6282	1
12871	12870	12881	1
12869	12870	12881	1
12881	7097	7090	1
12881	7097	7099	1
12871	12872	12879	1
12873	12872	12879	1
12879	10364	10357	1
12879	10364	10366	1
12870	12881	12882	1
12870	12881	7097	1
12870	12871	12872	1
12870	12871	12875	1
12870	12869	12874	1
12870	12869	12877	1
12872	12879	12880	1
12872	12879	10364	1
12872	12871	12875	1
12872	12873	12874	1
12872	12873	12876	1
12869	12870	12871	1
12871	12872	12873	1
12869	12874	12873	1
12869	12874	12878	1
12873	12874	12878	1
12874	12869	12877	1
12874	12873	12876	1
12882	12881	7097	1
12880	12879	10364	1
3662	3663	3670	1
3664	3663	3670	1
3670	10980	10970	1
3670	10980	10982	1
3662	3661	3672	1
3660	3661	3672	1
3663	3670	3671	1
3663	3670	10980	1
3661	3662	3663	1
3663	3662	3666	1
3663	3664	3665	1
3663	3664	3667	1
3661	3672	3673	1
3661	3672	3674	1
3661	3662	3666	1
3661	3660	3665	1
3661	3660	3668	1
3662	3663	3664	1
3660	3661	3662	1
3660	3665	3664	1
3664	3665	3669	1
3660	3665	3669	1
3665	3664	3667	1
3665	3660	3668	1
3671	3670	10980	1
3673	3672	3674	1
3707	3708	3715	1
3709	3708	3715	1
3715	11004	10998	1
3715	11004	11005	1
3707	3706	3717	1
3705	3706	3717	1
3708	3715	3716	1
3708	3715	11004	1
3706	3707	3708	1
3708	3707	3711	1
3708	3709	3710	1
3708	3709	3712	1
3706	3717	3718	1
3706	3717	3719	1
3706	3707	3711	1
3706	3705	3710	1
3706	3705	3713	1
3707	3708	3709	1
3705	3706	3707	1
3705	3710	3709	1
3709	3710	3714	1
3705	3710	3714	1
3710	3709	3712	1
3710	3705	3713	1
3716	3715	11004	1
3718	3717	3719	1
4394	4395	4402	1
4396	4395	4402	1
4402	4412	4406	1
4402	4412	4413	1
4394	4393	4404	1
4392	4393	4404	1
4404	10995	10985	1
4404	10995	10997	1
4395	4402	4403	1
4395	4402	4412	1
4393	4394	4395	1
4395	4394	4398	1
4395	4396	4397	1
4395	4396	4399	1
4393	4404	4405	1
4393	4404	10995	1
4393	4394	4398	1
4393	4392	4397	1
4393	4392	4400	1
4394	4395	4396	1
4392	4393	4394	1
4392	4397	4396	1
4396	4397	4401	1
4392	4397	4401	1
4397	4396	4399	1
4397	4392	4400	1
4403	4402	4412	1
4405	4404	10995	1
5645	5644	5655	1
5643	5644	5655	1
5655	7797	7787	1
5655	7797	7799	1
5645	5646	5653	1
5647	5646	5653	1
5653	5663	5657	1
5653	5663	5664	1
5644	5655	5656	1
5644	5655	7797	1
5644	5645	5646	1
5644	5645	5649	1
5644	5643	5648	1
5644	5643	5651	1
5646	5653	5654	1
5646	5653	5663	1
5646	5645	5649	1
5646	5647	5648	1
5646	5647	5650	1
5643	5644	5645	1
5645	5646	5647	1
5643	5648	5647	1
5643	5648	5652	1
5647	5648	5652	1
5648	5643	5651	1
5648	5647	5650	1
5656	5655	7797	1
5654	5653	5663	1
1498	1497	1508	1
1496	1497	1508	1
1508	6776	6769	1
1508	6776	6778	1
1498	1499	1506	1
1500	1499	1506	1
1512	1510	1506	1
1511	1510	1506	1
1497	1508	1509	1
1497	1508	6776	1
1497	1498	1499	1
1497	1498	1502	1
1497	1496	1501	1
1497	1496	1504	1
1499	1506	1507	1
1510	1506	1499	1
1499	1498	1502	1
1499	1500	1501	1
1499	1500	1503	1
1496	1497	1498	1
1498	1499	1500	1
1496	1501	1500	1
1496	1501	1505	1
1500	1501	1505	1
1501	1496	1504	1
1501	1500	1503	1
1509	1508	6776	1
1510	1506	1507	1
1019	1018	1029	1
1017	1018	1029	1
1000	1006	1029	1
1007	1006	1029	1
1019	1020	1027	1
1021	1020	1027	1
1027	10409	10402	1
1027	10409	10411	1
1018	1029	1030	1
1006	1029	1018	1
1018	1019	1020	1
1018	1019	1023	1
1018	1017	1022	1
1018	1017	1025	1
1020	1027	1028	1
1020	1027	10409	1
1020	1019	1023	1
1020	1021	1022	1
1020	1021	1024	1
1017	1018	1019	1
1019	1020	1021	1
1017	1022	1021	1
1017	1022	1026	1
1021	1022	1026	1
1022	1017	1025	1
1022	1021	1024	1
1006	1029	1030	1
1028	1027	10409	1
648	647	658	1
646	647	658	1
629	635	658	1
636	635	658	1
648	649	656	1
650	649	656	1
2174	2180	656	1
2181	2180	656	1
647	658	659	1
635	658	647	1
647	648	649	1
647	648	652	1
647	646	651	1
647	646	654	1
649	656	657	1
2180	656	649	1
649	648	652	1
649	650	651	1
649	650	653	1
646	647	648	1
648	649	650	1
646	651	650	1
646	651	655	1
650	651	655	1
651	646	654	1
651	650	653	1
635	658	659	1
2180	656	657	1
11471	11470	11481	1
11469	11470	11481	1
11481	8499	8489	1
11481	8499	8501	1
11471	11472	11479	1
11473	11472	11479	1
11479	4315	4308	1
11479	4315	4317	1
11470	11481	11482	1
11470	11481	8499	1
11470	11471	11472	1
11470	11471	11475	1
11470	11469	11474	1
11470	11469	11477	1
11472	11479	11480	1
11472	11479	4315	1
11472	11471	11475	1
11472	11473	11474	1
11472	11473	11476	1
11469	11470	11471	1
11471	11472	11473	1
11469	11474	11473	1
11469	11474	11478	1
11473	11474	11478	1
11474	11469	11477	1
11474	11473	11476	1
11482	11481	8499	1
11480	11479	4315	1
4539	4538	4549	1
4537	4538	4549	1
4549	7373	7366	1
4549	7373	7375	1
4539	4540	4547	1
4541	4540	4547	1
4547	4557	4551	1
4547	4557	4558	1
4538	4549	4550	1
4538	4549	7373	1
4538	4539	4540	1
4538	4539	4543	1
4538	4537	4542	1
4538	4537	4545	1
4540	4547	4548	1
4540	4547	4557	1
4540	4539	4543	1
4540	4541	4542	1
4540	4541	4544	1
4537	4538	4539	1
4539	4540	4541	1
4537	4542	4541	1
4537	4542	4546	1
4541	4542	4546	1
4542	4537	4545	1
4542	4541	4544	1
4550	4549	7373	1
4548	4547	4557	1
10707	10708	10715	1
10709	10708	10715	1
10715	10725	10719	1
10715	10725	10726	1
10707	10706	10717	1
10705	10706	10717	1
10717	4824	4814	1
10717	4824	4826	1
10708	10715	10716	1
10708	10715	10725	1
10708	10707	10706	1
10708	10707	10711	1
10708	10709	10710	1
10708	10709	10712	1
10706	10717	10718	1
10706	10717	4824	1
10706	10707	10711	1
10706	10705	10710	1
10706	10705	10713	1
10709	10708	10707	1
10707	10706	10705	1
10709	10710	10705	1
10709	10710	10714	1
10705	10710	10714	1
10710	10709	10712	1
10710	10705	10713	1
10716	10715	10725	1
10718	10717	4824	1
6141	6140	6151	1
6139	6140	6151	1
6151	10389	10383	1
6151	10389	10390	1
6141	6142	6149	1
6143	6142	6149	1
6149	6159	6153	1
6149	6159	6160	1
6140	6151	6152	1
6140	6151	10389	1
6140	6141	6142	1
6140	6141	6145	1
6140	6139	6144	1
6140	6139	6147	1
6142	6149	6150	1
6142	6149	6159	1
6142	6141	6145	1
6142	6143	6144	1
6142	6143	6146	1
6139	6140	6141	1
6141	6142	6143	1
6139	6144	6143	1
6139	6144	6148	1
6143	6144	6148	1
6144	6139	6147	1
6144	6143	6146	1
6152	6151	10389	1
6150	6149	6159	1
13655	13656	13663	1
13657	13656	13663	1
13663	10088	10081	1
13663	10088	10090	1
13655	13654	13665	1
13653	13654	13665	1
13665	10541	10534	1
13665	10541	10543	1
13656	13663	13664	1
13656	13663	10088	1
13656	13655	13654	1
13656	13655	13659	1
13656	13657	13658	1
13656	13657	13660	1
13654	13665	13666	1
13654	13665	10541	1
13654	13655	13659	1
13654	13653	13658	1
13654	13653	13661	1
13657	13656	13655	1
13655	13654	13653	1
13657	13658	13653	1
13657	13658	13662	1
13653	13658	13662	1
13658	13657	13660	1
13658	13653	13661	1
13664	13663	10088	1
13666	13665	10541	1
6826	6827	6834	1
6828	6827	6834	1
6834	6844	6838	1
6834	6844	6845	1
6826	6825	6836	1
6824	6825	6836	1
6836	4533	4526	1
6836	4533	4535	1
6827	6834	6835	1
6827	6834	6844	1
6825	6826	6827	1
6827	6826	6830	1
6827	6828	6829	1
6827	6828	6831	1
6825	6836	6837	1
6825	6836	4533	1
6825	6826	6830	1
6825	6824	6829	1
6825	6824	6832	1
6826	6827	6828	1
6824	6825	6826	1
6824	6829	6828	1
6828	6829	6833	1
6824	6829	6833	1
6829	6828	6831	1
6829	6824	6832	1
6835	6834	6844	1
6837	6836	4533	1
13571	13570	13581	1
13569	13570	13581	1
13581	10702	10692	1
13581	10702	10704	1
13571	13572	13579	1
13573	13572	13579	1
13579	9402	9395	1
13579	9402	9404	1
13570	13581	13582	1
13570	13581	10702	1
13570	13571	13572	1
13570	13571	13575	1
13570	13569	13574	1
13570	13569	13577	1
13572	13579	13580	1
13572	13579	9402	1
13572	13571	13575	1
13572	13573	13574	1
13572	13573	13576	1
13569	13570	13571	1
13571	13572	13573	1
13569	13574	13573	1
13569	13574	13578	1
13573	13574	13578	1
13574	13569	13577	1
13574	13573	13576	1
13582	13581	10702	1
13580	13579	9402	1
1760	1761	1768	1
1762	1761	1768	1
1741	1747	1768	1
1748	1747	1768	1
1760	1759	1770	1
1758	1759	1770	1
1770	8629	8622	1
1770	8629	8631	1
1761	1768	1769	1
1747	1768	1761	1
1759	1760	1761	1
1761	1760	1764	1
1761	1762	1763	1
1761	1762	1765	1
1759	1770	1771	1
1759	1770	8629	1
1759	1760	1764	1
1759	1758	1763	1
1759	1758	1766	1
1760	1761	1762	1
1758	1759	1760	1
1758	1763	1762	1
1762	1763	1767	1
1758	1763	1767	1
1763	1762	1765	1
1763	1758	1766	1
1747	1768	1769	1
1771	1770	8629	1
6753	6752	6763	1
6751	6752	6763	1
6763	10083	10077	1
6763	10083	10084	1
6753	6754	6761	1
6755	6754	6761	1
6761	6771	6765	1
6761	6771	6772	1
6752	6763	6764	1
6752	6763	10083	1
6752	6753	6754	1
6752	6753	6757	1
6752	6751	6756	1
6752	6751	6759	1
6754	6761	6762	1
6754	6761	6771	1
6754	6753	6757	1
6754	6755	6756	1
6754	6755	6758	1
6751	6752	6753	1
6753	6754	6755	1
6751	6756	6755	1
6751	6756	6760	1
6755	6756	6760	1
6756	6751	6759	1
6756	6755	6758	1
6764	6763	10083	1
6762	6761	6771	1
370	369	380	1
368	369	380	1
380	8273	8267	1
380	8273	8274	1
370	371	378	1
372	371	378	1
351	357	378	1
358	357	378	1
369	380	381	1
369	380	8273	1
369	370	371	1
369	370	374	1
369	368	373	1
369	368	376	1
371	378	379	1
357	378	371	1
371	370	374	1
371	372	373	1
371	372	375	1
368	369	370	1
370	371	372	1
368	373	372	1
368	373	377	1
372	373	377	1
373	368	376	1
373	372	375	1
381	380	8273	1
357	378	379	1
3167	3168	3175	1
3169	3168	3175	1
3175	8376	8370	1
3175	8376	8377	1
3167	3166	3177	1
3165	3166	3177	1
3168	3175	3176	1
3168	3175	8376	1
3166	3167	3168	1
3168	3167	3171	1
3168	3169	3170	1
3168	3169	3172	1
3166	3177	3178	1
3166	3177	3179	1
3166	3167	3171	1
3166	3165	3170	1
3166	3165	3173	1
3167	3168	3169	1
3165	3166	3167	1
3165	3170	3169	1
3169	3170	3174	1
3165	3170	3174	1
3170	3169	3172	1
3170	3165	3173	1
3176	3175	8376	1
3179	3177	3178	1
2162	2161	2172	1
2160	2161	2172	1
2143	2149	2172	1
2150	2149	2172	1
2162	2163	2170	1
2164	2163	2170	1
2170	4281	4275	1
2170	4281	4282	1
2161	2172	2173	1
2149	2172	2161	1
2161	2162	2163	1
2161	2162	2166	1
2161	2160	2165	1
2161	2160	2168	1
2163	2170	2171	1
2163	2170	4281	1
2163	2162	2166	1
2163	2164	2165	1
2163	2164	2167	1
2160	2161	2162	1
2162	2163	2164	1
2160	2165	2164	1
2160	2165	2169	1
2164	2165	2169	1
2165	2160	2168	1
2165	2164	2167	1
2149	2172	2173	1
2171	2170	4281	1
11177	11176	11187	1
11175	11176	11187	1
11187	4287	4277	1
11187	4287	4289	1
11177	11178	11185	1
11179	11178	11185	1
11185	3850	3843	1
11185	3850	3852	1
11176	11187	11188	1
11176	11187	4287	1
11176	11177	11178	1
11176	11177	11181	1
11176	11175	11180	1
11176	11175	11183	1
11178	11185	11186	1
11178	11185	3850	1
11178	11177	11181	1
11178	11179	11180	1
11178	11179	11182	1
11175	11176	11177	1
11177	11178	11179	1
11175	11180	11179	1
11175	11180	11184	1
11179	11180	11184	1
11180	11175	11183	1
11180	11179	11182	1
11188	11187	4287	1
11186	11185	3850	1
2053	2052	2063	1
2051	2052	2063	1
2067	2065	2063	1
2066	2065	2063	1
2053	2054	2061	1
2055	2054	2061	1
2061	6135	6128	1
2061	6135	6137	1
2052	2063	2064	1
2065	2063	2052	1
2052	2053	2054	1
2052	2053	2057	1
2052	2051	2056	1
2052	2051	2059	1
2054	2061	2062	1
2054	2061	6135	1
2054	2053	2057	1
2054	2055	2056	1
2054	2055	2058	1
2051	2052	2053	1
2053	2054	2055	1
2051	2056	2055	1
2051	2056	2060	1
2055	2056	2060	1
2056	2051	2059	1
2056	2055	2058	1
2065	2063	2064	1
2062	2061	6135	1
12619	12620	12627	1
12621	12620	12627	1
12627	10731	10721	1
12627	10731	10733	1
12619	12618	12629	1
12617	12618	12629	1
12629	6341	6331	1
12629	6341	6343	1
12620	12627	12628	1
12620	12627	10731	1
12620	12619	12618	1
12620	12619	12623	1
12620	12621	12622	1
12620	12621	12624	1
12618	12629	12630	1
12618	12629	6341	1
12618	12619	12623	1
12618	12617	12622	1
12618	12617	12625	1
12621	12620	12619	1
12619	12618	12617	1
12621	12622	12617	1
12621	12622	12626	1
12617	12622	12626	1
12622	12621	12624	1
12622	12617	12625	1
12628	12627	10731	1
12630	12629	6341	1
6928	6927	6938	1
6926	6927	6938	1
6938	6946	6940	1
6938	6946	6947	1
6928	6929	6936	1
6930	6929	6936	1
1993	2000	6936	1
2002	2000	6936	1
6927	6938	6939	1
6927	6938	6946	1
6927	6928	6929	1
6927	6928	6932	1
6927	6926	6931	1
6927	6926	6934	1
6929	6936	6937	1
2000	6936	6929	1
6929	6928	6932	1
6929	6930	6931	1
6929	6930	6933	1
6926	6927	6928	1
6928	6929	6930	1
6926	6931	6930	1
6926	6931	6935	1
6930	6931	6935	1
6931	6926	6934	1
6931	6930	6933	1
6939	6938	6946	1
2000	6936	6937	1
11793	11794	11801	1
11795	11794	11801	1
11801	8966	8956	1
11801	8966	8968	1
11793	11792	11803	1
11791	11792	11803	1
11803	4867	4860	1
11803	4867	4869	1
11794	11801	11802	1
11794	11801	8966	1
11792	11793	11794	1
11794	11793	11797	1
11794	11795	11796	1
11794	11795	11798	1
11792	11803	11804	1
11792	11803	4867	1
11792	11793	11797	1
11792	11791	11796	1
11792	11791	11799	1
11793	11794	11795	1
11791	11792	11793	1
11791	11796	11795	1
11795	11796	11800	1
11791	11796	11800	1
11796	11795	11798	1
11796	11791	11799	1
11802	11801	8966	1
11804	11803	4867	1
1883	1884	1891	1
1885	1884	1891	1
1891	5342	5336	1
1891	5342	5343	1
1883	1882	1893	1
1881	1882	1893	1
1864	1870	1893	1
1871	1870	1893	1
1884	1891	1892	1
1884	1891	5342	1
1884	1883	1882	1
1884	1883	1887	1
1884	1885	1886	1
1884	1885	1888	1
1882	1893	1894	1
1870	1893	1882	1
1882	1883	1887	1
1882	1881	1886	1
1882	1881	1889	1
1885	1884	1883	1
1883	1882	1881	1
1885	1886	1881	1
1885	1886	1890	1
1881	1886	1890	1
1886	1885	1888	1
1886	1881	1889	1
1892	1891	5342	1
1870	1893	1894	1
12143	12142	12153	1
12141	12142	12153	1
12153	5581	5571	1
12153	5581	5583	1
12143	12144	12151	1
12145	12144	12151	1
12151	9431	9424	1
12151	9431	9433	1
12142	12153	12154	1
12142	12153	5581	1
12142	12143	12144	1
12142	12143	12147	1
12142	12141	12146	1
12142	12141	12149	1
12144	12151	12152	1
12144	12151	9431	1
12144	12143	12147	1
12144	12145	12146	1
12144	12145	12148	1
12141	12142	12143	1
12143	12144	12145	1
12141	12146	12145	1
12141	12146	12150	1
12145	12146	12150	1
12146	12141	12149	1
12146	12145	12148	1
12154	12153	5581	1
12152	12151	9431	1
3242	3243	3250	1
3244	3243	3250	1
3250	8746	8739	1
3250	8746	8748	1
3242	3241	3252	1
3240	3241	3252	1
3243	3250	3251	1
3243	3250	8746	1
3241	3242	3243	1
3243	3242	3246	1
3243	3244	3245	1
3243	3244	3247	1
3241	3252	3253	1
3241	3252	3254	1
3241	3242	3246	1
3241	3240	3245	1
3241	3240	3248	1
3242	3243	3244	1
3240	3241	3242	1
3240	3245	3244	1
3244	3245	3249	1
3240	3245	3249	1
3245	3244	3247	1
3245	3240	3248	1
3251	3250	8746	1
3253	3252	3254	1
1667	1666	1677	1
1665	1666	1677	1
1648	1654	1677	1
1655	1654	1677	1
1667	1668	1675	1
1669	1668	1675	1
1675	9827	9817	1
1675	9827	9829	1
1666	1677	1678	1
1654	1677	1666	1
1666	1667	1668	1
1666	1667	1671	1
1666	1665	1670	1
1666	1665	1673	1
1668	1675	1676	1
1668	1675	9827	1
1668	1667	1671	1
1668	1669	1670	1
1668	1669	1672	1
1665	1666	1667	1
1667	1668	1669	1
1665	1670	1669	1
1665	1670	1674	1
1669	1670	1674	1
1670	1665	1673	1
1670	1669	1672	1
1654	1677	1678	1
1676	1675	9827	1
9030	9029	9040	1
9028	9029	9040	1
9040	9048	9042	1
9040	9048	9049	1
9030	9031	9038	1
9032	9031	9038	1
9038	10907	10897	1
9038	10907	10909	1
9029	9040	9041	1
9029	9040	9048	1
9029	9030	9031	1
9029	9030	9034	1
9029	9028	9033	1
9029	9028	9036	1
9031	9038	9039	1
9031	9038	10907	1
9031	9030	9034	1
9031	9032	9033	1
9031	9032	9035	1
9028	9029	9030	1
9030	9031	9032	1
9028	9033	9032	1
9028	9033	9037	1
9032	9033	9037	1
9033	9028	9036	1
9033	9032	9035	1
9041	9040	9048	1
9039	9038	10907	1
12437	12436	12447	1
12435	12436	12447	1
12447	8484	8474	1
12447	8484	8486	1
12437	12438	12445	1
12439	12438	12445	1
12445	6020	6010	1
12445	6020	6022	1
12436	12447	12448	1
12436	12447	8484	1
12436	12437	12438	1
12436	12437	12441	1
12436	12435	12440	1
12436	12435	12443	1
12438	12445	12446	1
12438	12445	6020	1
12438	12437	12441	1
12438	12439	12440	1
12438	12439	12442	1
12435	12436	12437	1
12437	12438	12439	1
12435	12440	12439	1
12435	12440	12444	1
12439	12440	12444	1
12440	12435	12443	1
12440	12439	12442	1
12448	12447	8484	1
12446	12445	6020	1
3332	3333	3340	1
3334	3333	3340	1
3340	9069	9059	1
3340	9069	9071	1
3332	3331	3342	1
3330	3331	3342	1
3333	3340	3341	1
3333	3340	9069	1
3331	3332	3333	1
3333	3332	3336	1
3333	3334	3335	1
3333	3334	3337	1
3331	3342	3344	1
3331	3342	3343	1
3331	3332	3336	1
3331	3330	3335	1
3331	3330	3338	1
3332	3333	3334	1
3330	3331	3332	1
3330	3335	3334	1
3334	3335	3339	1
3330	3335	3339	1
3335	3334	3337	1
3335	3330	3338	1
3341	3340	9069	1
3343	3342	3344	1
2672	2671	2682	1
2670	2671	2682	1
2672	2673	2680	1
2674	2673	2680	1
2680	4388	4381	1
2680	4388	4390	1
2671	2682	2684	1
2671	2682	2683	1
2671	2672	2673	1
2671	2672	2676	1
2671	2670	2675	1
2671	2670	2678	1
2673	2680	2681	1
2673	2680	4388	1
2673	2672	2676	1
2673	2674	2675	1
2673	2674	2677	1
2670	2671	2672	1
2672	2673	2674	1
2670	2675	2674	1
2670	2675	2679	1
2674	2675	2679	1
2675	2670	2678	1
2675	2674	2677	1
2684	2682	2683	1
2681	2680	4388	1
2642	2641	2652	1
2640	2641	2652	1
2642	2643	2650	1
2644	2643	2650	1
2650	4068	4061	1
2650	4068	4070	1
2641	2652	2653	1
2641	2652	2654	1
2641	2642	2643	1
2641	2642	2646	1
2641	2640	2645	1
2641	2640	2648	1
2643	2650	2651	1
2643	2650	4068	1
2643	2642	2646	1
2643	2644	2645	1
2643	2644	2647	1
2640	2641	2642	1
2642	2643	2644	1
2640	2645	2644	1
2640	2645	2649	1
2644	2645	2649	1
2645	2640	2648	1
2645	2644	2647	1
2653	2652	2654	1
2651	2650	4068	1
13585	13584	13595	1
13583	13584	13595	1
13595	10117	10110	1
13595	10117	10119	1
13585	13586	13593	1
13587	13586	13593	1
13593	9651	9644	1
13593	9651	9653	1
13584	13595	13596	1
13584	13595	10117	1
13584	13585	13586	1
13584	13585	13589	1
13584	13583	13588	1
13584	13583	13591	1
13586	13593	13594	1
13586	13593	9651	1
13586	13585	13589	1
13586	13587	13588	1
13586	13587	13590	1
13583	13584	13585	1
13585	13586	13587	1
13583	13588	13587	1
13583	13588	13592	1
13587	13588	13592	1
13588	13583	13591	1
13588	13587	13590	1
13596	13595	10117	1
13594	13593	9651	1
7350	7349	7360	1
7348	7349	7360	1
7360	7368	7362	1
7360	7368	7369	1
7350	7351	7358	1
7352	7351	7358	1
7358	9053	9046	1
7358	9053	9055	1
7349	7360	7361	1
7349	7360	7368	1
7349	7350	7351	1
7349	7350	7354	1
7349	7348	7353	1
7349	7348	7356	1
7351	7358	7359	1
7351	7358	9053	1
7351	7350	7354	1
7351	7352	7353	1
7351	7352	7355	1
7348	7349	7350	1
7350	7351	7352	1
7348	7353	7352	1
7348	7353	7357	1
7352	7353	7357	1
7353	7348	7356	1
7353	7352	7355	1
7361	7360	7368	1
7359	7358	9053	1
13515	13514	13525	1
13513	13514	13525	1
13525	9287	9277	1
13525	9287	9289	1
13515	13516	13523	1
13517	13516	13523	1
13523	9010	9000	1
13523	9010	9012	1
13514	13525	13526	1
13514	13525	9287	1
13514	13515	13516	1
13514	13515	13519	1
13514	13513	13518	1
13514	13513	13521	1
13516	13523	13524	1
13516	13523	9010	1
13516	13515	13519	1
13516	13517	13518	1
13516	13517	13520	1
13513	13514	13515	1
13515	13516	13517	1
13513	13518	13517	1
13513	13518	13522	1
13517	13518	13522	1
13518	13513	13521	1
13518	13517	13520	1
13526	13525	9287	1
13524	13523	9010	1
11835	11834	11845	1
11833	11834	11845	1
11845	4925	4918	1
11845	4925	4927	1
11835	11836	11843	1
11837	11836	11843	1
11843	5246	5236	1
11843	5246	5248	1
11834	11845	11846	1
11834	11845	4925	1
11834	11835	11836	1
11834	11835	11839	1
11834	11833	11838	1
11834	11833	11841	1
11836	11843	11844	1
11836	11843	5246	1
11836	11835	11839	1
11836	11837	11838	1
11836	11837	11840	1
11833	11834	11835	1
11835	11836	11837	1
11833	11838	11837	1
11833	11838	11842	1
11837	11838	11842	1
11838	11833	11841	1
11838	11837	11840	1
11846	11845	4925	1
11844	11843	5246	1
12549	12548	12559	1
12547	12548	12559	1
12559	7564	7554	1
12559	7564	7566	1
12549	12550	12557	1
12551	12550	12557	1
12557	6237	6230	1
12557	6237	6239	1
12548	12559	12560	1
12548	12559	7564	1
12548	12549	12550	1
12548	12549	12553	1
12548	12547	12552	1
12548	12547	12555	1
12550	12557	12558	1
12550	12557	6237	1
12550	12549	12553	1
12550	12551	12552	1
12550	12551	12554	1
12547	12548	12549	1
12549	12550	12551	1
12547	12552	12551	1
12547	12552	12556	1
12551	12552	12556	1
12552	12547	12555	1
12552	12551	12554	1
12560	12559	7564	1
12558	12557	6237	1
7831	7830	7841	1
7829	7830	7841	1
7841	7849	7843	1
7841	7849	7850	1
7831	7832	7839	1
7833	7832	7839	1
7839	7951	7945	1
7839	7951	7952	1
7830	7841	7842	1
7830	7841	7849	1
7830	7831	7832	1
7830	7831	7835	1
7830	7829	7834	1
7830	7829	7837	1
7832	7839	7840	1
7832	7839	7951	1
7832	7831	7835	1
7832	7833	7834	1
7832	7833	7836	1
7829	7830	7831	1
7831	7832	7833	1
7829	7834	7833	1
7829	7834	7838	1
7833	7834	7838	1
7834	7829	7837	1
7834	7833	7836	1
7842	7841	7849	1
7840	7839	7951	1
8782	8781	8792	1
8780	8781	8792	1
8792	5669	5659	1
8792	5669	5671	1
8782	8783	8790	1
8784	8783	8790	1
8790	8800	8794	1
8790	8800	8801	1
8781	8792	8793	1
8781	8792	5669	1
8781	8782	8783	1
8781	8782	8786	1
8781	8780	8785	1
8781	8780	8788	1
8783	8790	8791	1
8783	8790	8800	1
8783	8782	8786	1
8783	8784	8785	1
8783	8784	8787	1
8780	8781	8782	1
8782	8783	8784	1
8780	8785	8784	1
8780	8785	8789	1
8784	8785	8789	1
8785	8780	8788	1
8785	8784	8787	1
8793	8792	5669	1
8791	8790	8800	1
11205	11204	11215	1
11203	11204	11215	1
11215	8322	8315	1
11215	8322	8324	1
11205	11206	11213	1
11207	11206	11213	1
11213	3866	3856	1
11213	3866	3868	1
11204	11215	11216	1
11204	11215	8322	1
11204	11205	11206	1
11204	11205	11209	1
11204	11203	11208	1
11204	11203	11211	1
11206	11213	11214	1
11206	11213	3866	1
11206	11205	11209	1
11206	11207	11208	1
11206	11207	11210	1
11203	11204	11205	1
11205	11206	11207	1
11203	11208	11207	1
11203	11208	11212	1
11207	11208	11212	1
11208	11203	11211	1
11208	11207	11210	1
11216	11215	8322	1
11214	11213	3866	1
4684	4683	4694	1
4682	4683	4694	1
4694	4702	4696	1
4694	4702	4703	1
4684	4685	4692	1
4686	4685	4692	1
4692	7534	7527	1
4692	7534	7536	1
4683	4694	4695	1
4683	4694	4702	1
4683	4684	4685	1
4683	4684	4688	1
4683	4682	4687	1
4683	4682	4690	1
4685	4692	4693	1
4685	4692	7534	1
4685	4684	4688	1
4685	4686	4687	1
4685	4686	4689	1
4682	4683	4684	1
4684	4685	4686	1
4682	4687	4686	1
4682	4687	4691	1
4686	4687	4691	1
4687	4682	4690	1
4687	4686	4689	1
4695	4694	4702	1
4693	4692	7534	1
2792	2791	2802	1
2790	2791	2802	1
2792	2793	2800	1
2794	2793	2800	1
2800	5303	5296	1
2800	5303	5305	1
2791	2802	2804	1
2791	2802	2803	1
2791	2792	2793	1
2791	2792	2796	1
2791	2790	2795	1
2791	2790	2798	1
2793	2800	2801	1
2793	2800	5303	1
2793	2792	2796	1
2793	2794	2795	1
2793	2794	2797	1
2790	2791	2792	1
2792	2793	2794	1
2790	2795	2794	1
2790	2795	2799	1
2794	2795	2799	1
2795	2790	2798	1
2795	2794	2797	1
2804	2802	2803	1
2801	2800	5303	1
1545	1544	1555	1
1543	1544	1555	1
1526	1532	1555	1
1533	1532	1555	1
1545	1546	1553	1
1547	1546	1553	1
664	671	1553	1
673	671	1553	1
1544	1555	1556	1
1532	1555	1544	1
1544	1545	1546	1
1544	1545	1549	1
1544	1543	1548	1
1544	1543	1551	1
1546	1553	1554	1
671	1553	1546	1
1546	1545	1549	1
1546	1547	1548	1
1546	1547	1550	1
1543	1544	1545	1
1545	1546	1547	1
1543	1548	1547	1
1543	1548	1552	1
1547	1548	1552	1
1548	1543	1551	1
1548	1547	1550	1
1532	1555	1556	1
671	1553	1554	1
11359	11358	11369	1
11357	11358	11369	1
11369	9505	9495	1
11369	9505	9507	1
11359	11360	11367	1
11361	11360	11367	1
11367	4155	4148	1
11367	4155	4157	1
11358	11369	11370	1
11358	11369	9505	1
11358	11359	11360	1
11358	11359	11363	1
11358	11357	11362	1
11358	11357	11365	1
11360	11367	11368	1
11360	11367	4155	1
11360	11359	11363	1
11360	11361	11362	1
11360	11361	11364	1
11357	11358	11359	1
11359	11360	11361	1
11357	11362	11361	1
11357	11362	11366	1
11361	11362	11366	1
11362	11357	11365	1
11362	11361	11364	1
11370	11369	9505	1
11368	11367	4155	1
4452	4451	4462	1
4450	4451	4462	1
4462	4470	4464	1
4462	4470	4471	1
4452	4453	4460	1
4454	4453	4460	1
4460	6077	6070	1
4460	6077	6079	1
4451	4462	4463	1
4451	4462	4470	1
4451	4452	4453	1
4451	4452	4456	1
4451	4450	4455	1
4451	4450	4458	1
4453	4460	4461	1
4453	4460	6077	1
4453	4452	4456	1
4453	4454	4455	1
4453	4454	4457	1
4450	4451	4452	1
4452	4453	4454	1
4450	4455	4454	1
4450	4455	4459	1
4454	4455	4459	1
4455	4450	4458	1
4455	4454	4457	1
4463	4462	4470	1
4461	4460	6077	1
8137	8136	8147	1
8135	8136	8147	1
8147	8155	8149	1
8147	8155	8156	1
8137	8138	8145	1
8139	8138	8145	1
8145	5187	5180	1
8145	5187	5189	1
8136	8147	8148	1
8136	8147	8155	1
8136	8137	8138	1
8136	8137	8141	1
8136	8135	8140	1
8136	8135	8143	1
8138	8145	8146	1
8138	8145	5187	1
8138	8137	8141	1
8138	8139	8140	1
8138	8139	8142	1
8135	8136	8137	1
8137	8138	8139	1
8135	8140	8139	1
8135	8140	8144	1
8139	8140	8144	1
8140	8135	8143	1
8140	8139	8142	1
8148	8147	8155	1
8146	8145	5187	1
2957	2956	2967	1
2955	2956	2967	1
2957	2958	2965	1
2959	2958	2965	1
2965	6559	6549	1
2965	6559	6561	1
2956	2967	2969	1
2956	2967	2968	1
2956	2957	2958	1
2956	2957	2961	1
2956	2955	2960	1
2956	2955	2963	1
2958	2965	2966	1
2958	2965	6559	1
2958	2957	2961	1
2958	2959	2960	1
2958	2959	2962	1
2955	2956	2957	1
2957	2958	2959	1
2955	2960	2959	1
2955	2960	2964	1
2959	2960	2964	1
2960	2955	2963	1
2960	2959	2962	1
2969	2967	2968	1
2966	2965	6559	1
7889	7888	7899	1
7887	7888	7899	1
7899	7907	7901	1
7899	7907	7908	1
7889	7890	7897	1
7891	7890	7897	1
7897	4097	4090	1
7897	4097	4099	1
7888	7899	7900	1
7888	7899	7907	1
7888	7889	7890	1
7888	7889	7893	1
7888	7887	7892	1
7888	7887	7895	1
7890	7897	7898	1
7890	7897	4097	1
7890	7889	7893	1
7890	7891	7892	1
7890	7891	7894	1
7887	7888	7889	1
7889	7890	7891	1
7887	7892	7891	1
7887	7892	7896	1
7891	7892	7896	1
7892	7887	7895	1
7892	7891	7894	1
7900	7899	7907	1
7898	7897	4097	1
12017	12016	12027	1
12015	12016	12027	1
12027	5376	5369	1
12027	5376	5378	1
12017	12018	12025	1
12019	12018	12025	1
12025	9548	9541	1
12025	9548	9550	1
12016	12027	12028	1
12016	12027	5376	1
12016	12017	12018	1
12016	12017	12021	1
12016	12015	12020	1
12016	12015	12023	1
12018	12025	12026	1
12018	12025	9548	1
12018	12017	12021	1
12018	12019	12020	1
12018	12019	12022	1
12015	12016	12017	1
12017	12018	12019	1
12015	12020	12019	1
12015	12020	12024	1
12019	12020	12024	1
12020	12015	12023	1
12020	12019	12022	1
12028	12027	5376	1
12026	12025	9548	1
6855	6854	6865	1
6853	6854	6865	1
6865	6873	6867	1
6865	6873	6874	1
6855	6856	6863	1
6857	6856	6863	1
6863	6558	6551	1
6863	6558	6560	1
6854	6865	6866	1
6854	6865	6873	1
6854	6855	6856	1
6854	6855	6859	1
6854	6853	6858	1
6854	6853	6861	1
6856	6863	6864	1
6856	6863	6558	1
6856	6855	6859	1
6856	6857	6858	1
6856	6857	6860	1
6853	6854	6855	1
6855	6856	6857	1
6853	6858	6857	1
6853	6858	6862	1
6857	6858	6862	1
6858	6853	6861	1
6858	6857	6860	1
6866	6865	6873	1
6864	6863	6558	1
339	338	349	1
337	338	349	1
349	6101	6095	1
349	6101	6102	1
339	340	347	1
341	340	347	1
320	326	347	1
327	326	347	1
338	349	350	1
338	349	6101	1
338	339	340	1
338	339	343	1
338	337	342	1
338	337	345	1
340	347	348	1
326	347	340	1
340	339	343	1
340	341	342	1
340	341	344	1
337	338	339	1
339	340	341	1
337	342	341	1
337	342	346	1
341	342	346	1
342	337	345	1
342	341	344	1
350	349	6101	1
326	347	348	1
11429	11428	11439	1
11427	11428	11439	1
11439	4242	4235	1
11439	4242	4244	1
11429	11430	11437	1
11431	11430	11437	1
1455	1457	11437	1
1458	1457	11437	1
11428	11439	11440	1
11428	11439	4242	1
11428	11429	11430	1
11428	11429	11433	1
11428	11427	11432	1
11428	11427	11435	1
11430	11437	11438	1
1457	11437	11430	1
11430	11429	11433	1
11430	11431	11432	1
11430	11431	11434	1
11427	11428	11429	1
11429	11430	11431	1
11427	11432	11431	1
11427	11432	11436	1
11431	11432	11436	1
11432	11427	11435	1
11432	11431	11434	1
11440	11439	4242	1
1457	11437	11438	1
7744	7743	7754	1
7742	7743	7754	1
7754	9973	9963	1
7754	9973	9975	1
7744	7745	7752	1
7746	7745	7752	1
7752	7762	7756	1
7752	7762	7763	1
7743	7754	7755	1
7743	7754	9973	1
7743	7744	7745	1
7743	7744	7748	1
7743	7742	7747	1
7743	7742	7750	1
7745	7752	7753	1
7745	7752	7762	1
7745	7744	7748	1
7745	7746	7747	1
7745	7746	7749	1
7742	7743	7744	1
7744	7745	7746	1
7742	7747	7746	1
7742	7747	7751	1
7746	7747	7751	1
7747	7742	7750	1
7747	7746	7749	1
7755	7754	9973	1
7753	7752	7762	1
4510	4509	4520	1
4508	4509	4520	1
4520	4528	4522	1
4520	4528	4529	1
4510	4511	4518	1
4512	4511	4518	1
4518	8937	8927	1
4518	8937	8939	1
4509	4520	4521	1
4509	4520	4528	1
4509	4510	4511	1
4509	4510	4514	1
4509	4508	4513	1
4509	4508	4516	1
4511	4518	4519	1
4511	4518	8937	1
4511	4510	4514	1
4511	4512	4513	1
4511	4512	4515	1
4508	4509	4510	1
4510	4511	4512	1
4508	4513	4512	1
4508	4513	4517	1
4512	4513	4517	1
4513	4508	4516	1
4513	4512	4515	1
4521	4520	4528	1
4519	4518	8937	1
13613	13612	13623	1
13611	13612	13623	1
13623	11038	11031	1
13623	11038	11040	1
13613	13614	13621	1
13615	13614	13621	1
13621	9885	9875	1
13621	9885	9887	1
13612	13623	13624	1
13612	13623	11038	1
13612	13613	13614	1
13612	13613	13617	1
13612	13611	13616	1
13612	13611	13619	1
13614	13621	13622	1
13614	13621	9885	1
13614	13613	13617	1
13614	13615	13616	1
13614	13615	13618	1
13611	13612	13613	1
13613	13614	13615	1
13611	13616	13615	1
13611	13616	13620	1
13615	13616	13620	1
13616	13611	13619	1
13616	13615	13618	1
13624	13623	11038	1
13622	13621	9885	1
6491	6490	6501	1
6489	6490	6501	1
6501	6509	6503	1
6501	6509	6510	1
6491	6492	6499	1
6493	6492	6499	1
6499	8059	8049	1
6499	8059	8061	1
6490	6501	6502	1
6490	6501	6509	1
6490	6491	6492	1
6490	6491	6495	1
6490	6489	6494	1
6490	6489	6497	1
6492	6499	6500	1
6492	6499	8059	1
6492	6491	6495	1
6492	6493	6494	1
6492	6493	6496	1
6489	6490	6491	1
6491	6492	6493	1
6489	6494	6493	1
6489	6494	6498	1
6493	6494	6498	1
6494	6489	6497	1
6494	6493	6496	1
6502	6501	6509	1
6500	6499	8059	1
6346	6345	6356	1
6344	6345	6356	1
6356	6364	6358	1
6356	6364	6365	1
6346	6347	6354	1
6348	6347	6354	1
6354	10234	10224	1
6354	10234	10236	1
6345	6356	6357	1
6345	6356	6364	1
6345	6346	6347	1
6345	6346	6350	1
6345	6344	6349	1
6345	6344	6352	1
6347	6354	6355	1
6347	6354	10234	1
6347	6346	6350	1
6347	6348	6349	1
6347	6348	6351	1
6344	6345	6346	1
6346	6347	6348	1
6344	6349	6348	1
6344	6349	6353	1
6348	6349	6353	1
6349	6344	6352	1
6349	6348	6351	1
6357	6356	6364	1
6355	6354	10234	1
3647	3646	3657	1
3645	3646	3657	1
3647	3648	3655	1
3649	3648	3655	1
3655	10964	10957	1
3655	10964	10966	1
3646	3657	3659	1
3646	3657	3658	1
3646	3647	3648	1
3646	3647	3651	1
3646	3645	3650	1
3646	3645	3653	1
3648	3655	3656	1
3648	3655	10964	1
3648	3647	3651	1
3648	3649	3650	1
3648	3649	3652	1
3645	3646	3647	1
3647	3648	3649	1
3645	3650	3649	1
3645	3650	3654	1
3649	3650	3654	1
3650	3645	3653	1
3650	3649	3652	1
3658	3657	3659	1
3656	3655	10964	1
12465	12464	12475	1
12463	12464	12475	1
12475	6078	6068	1
12475	6078	6080	1
12465	12466	12473	1
12467	12466	12473	1
12473	10979	10972	1
12473	10979	10981	1
12464	12475	12476	1
12464	12475	6078	1
12464	12465	12466	1
12464	12465	12469	1
12464	12463	12468	1
12464	12463	12471	1
12466	12473	12474	1
12466	12473	10979	1
12466	12465	12469	1
12466	12467	12468	1
12466	12467	12470	1
12463	12464	12465	1
12465	12466	12467	1
12463	12468	12467	1
12463	12468	12472	1
12467	12468	12472	1
12468	12463	12471	1
12468	12467	12470	1
12476	12475	6078	1
12474	12473	10979	1
2519	2518	2529	1
2517	2518	2529	1
2529	7383	7377	1
2529	7383	7384	1
2519	2520	2527	1
2521	2520	2527	1
2500	2506	2527	1
2507	2506	2527	1
2518	2529	2530	1
2518	2529	7383	1
2518	2519	2520	1
2518	2519	2523	1
2518	2517	2522	1
2518	2517	2525	1
2520	2527	2528	1
2506	2527	2520	1
2520	2519	2523	1
2520	2521	2522	1
2520	2521	2524	1
2517	2518	2519	1
2519	2520	2521	1
2517	2522	2521	1
2517	2522	2526	1
2521	2522	2526	1
2522	2517	2525	1
2522	2521	2524	1
2530	2529	7383	1
2506	2527	2528	1
3002	3001	3012	1
3000	3001	3012	1
3002	3003	3010	1
3004	3003	3010	1
3010	6917	6911	1
3010	6917	6918	1
3001	3012	3014	1
3001	3012	3013	1
3001	3002	3003	1
3001	3002	3006	1
3001	3000	3005	1
3001	3000	3008	1
3003	3010	3011	1
3003	3010	6917	1
3003	3002	3006	1
3003	3004	3005	1
3003	3004	3007	1
3000	3001	3002	1
3002	3003	3004	1
3000	3005	3004	1
3000	3005	3009	1
3004	3005	3009	1
3005	3000	3008	1
3005	3004	3007	1
3014	3012	3013	1
3011	3010	6917	1
6564	6563	6574	1
6562	6563	6574	1
6574	6582	6576	1
6574	6582	6583	1
6564	6565	6572	1
6566	6565	6572	1
6572	8097	8091	1
6572	8097	8098	1
6563	6574	6575	1
6563	6574	6582	1
6563	6564	6565	1
6563	6564	6568	1
6563	6562	6567	1
6563	6562	6570	1
6565	6572	6573	1
6565	6572	8097	1
6565	6564	6568	1
6565	6566	6567	1
6565	6566	6569	1
6562	6563	6564	1
6564	6565	6566	1
6562	6567	6566	1
6562	6567	6571	1
6566	6567	6571	1
6567	6562	6570	1
6567	6566	6569	1
6575	6574	6582	1
6573	6572	8097	1
988	987	998	1
986	987	998	1
998	9695	9688	1
998	9695	9697	1
988	989	996	1
990	989	996	1
969	975	996	1
976	975	996	1
987	998	999	1
987	998	9695	1
987	988	989	1
987	988	992	1
987	986	991	1
987	986	994	1
989	996	997	1
975	996	989	1
989	988	992	1
989	990	991	1
989	990	993	1
986	987	988	1
988	989	990	1
986	991	990	1
986	991	995	1
990	991	995	1
991	986	994	1
991	990	993	1
999	998	9695	1
975	996	997	1
772	771	782	1
770	771	782	1
753	759	782	1
760	759	782	1
772	773	780	1
774	773	780	1
1297	1295	780	1
1296	1295	780	1
771	782	783	1
759	782	771	1
771	772	773	1
771	772	776	1
771	770	775	1
771	770	778	1
773	780	781	1
1295	780	773	1
773	772	776	1
773	774	775	1
773	774	777	1
770	771	772	1
772	773	774	1
770	775	774	1
770	775	779	1
774	775	779	1
775	770	778	1
775	774	777	1
759	782	783	1
1295	780	781	1
1330	1331	1338	1
1332	1331	1338	1
1311	1317	1338	1
1318	1317	1338	1
1330	1329	1340	1
1328	1329	1340	1
1340	5575	5569	1
1340	5575	5576	1
1331	1338	1339	1
1317	1338	1331	1
1331	1330	1329	1
1331	1330	1334	1
1331	1332	1333	1
1331	1332	1335	1
1329	1340	1341	1
1329	1340	5575	1
1329	1330	1334	1
1329	1328	1333	1
1329	1328	1336	1
1332	1331	1330	1
1330	1329	1328	1
1332	1333	1328	1
1332	1333	1337	1
1328	1333	1337	1
1333	1332	1335	1
1333	1328	1336	1
1317	1338	1339	1
1341	1340	5575	1
3782	3781	3792	1
3780	3781	3792	1
3782	3783	3790	1
3784	3783	3790	1
1469	1476	3790	1
1478	1476	3790	1
3781	3792	3794	1
3781	3792	3793	1
3781	3782	3783	1
3781	3782	3786	1
3781	3780	3785	1
3781	3780	3788	1
3783	3790	3791	1
1476	3790	3783	1
3783	3782	3786	1
3783	3784	3785	1
3783	3784	3787	1
3780	3781	3782	1
3782	3783	3784	1
3780	3785	3784	1
3780	3785	3789	1
3784	3785	3789	1
3785	3780	3788	1
3785	3784	3787	1
3794	3792	3793	1
1476	3790	3791	1
12129	12128	12139	1
12127	12128	12139	1
12139	9636	9629	1
12139	9636	9638	1
12129	12130	12137	1
12131	12130	12137	1
12137	5580	5573	1
12137	5580	5582	1
12128	12139	12140	1
12128	12139	9636	1
12128	12129	12130	1
12128	12129	12133	1
12128	12127	12132	1
12128	12127	12135	1
12130	12137	12138	1
12130	12137	5580	1
12130	12129	12133	1
12130	12131	12132	1
12130	12131	12134	1
12127	12128	12129	1
12129	12130	12131	1
12127	12132	12131	1
12127	12132	12136	1
12131	12132	12136	1
12132	12127	12135	1
12132	12131	12134	1
12140	12139	9636	1
12138	12137	5580	1
13347	13348	13355	1
13349	13348	13355	1
13355	8601	8591	1
13355	8601	8603	1
13347	13346	13357	1
13345	13346	13357	1
13357	8367	8357	1
13357	8367	8369	1
13348	13355	13356	1
13348	13355	8601	1
13348	13347	13346	1
13348	13347	13351	1
13348	13349	13350	1
13348	13349	13352	1
13346	13357	13358	1
13346	13357	8367	1
13346	13347	13351	1
13346	13345	13350	1
13346	13345	13353	1
13349	13348	13347	1
13347	13346	13345	1
13349	13350	13345	1
13349	13350	13354	1
13345	13350	13354	1
13350	13349	13352	1
13350	13345	13353	1
13356	13355	8601	1
13358	13357	8367	1
12087	12086	12097	1
12085	12086	12097	1
12097	5537	5527	1
12097	5537	5539	1
12087	12088	12095	1
12089	12088	12095	1
12095	5726	5719	1
12095	5726	5728	1
12086	12097	12098	1
12086	12097	5537	1
12086	12087	12088	1
12086	12087	12091	1
12086	12085	12090	1
12086	12085	12093	1
12088	12095	12096	1
12088	12095	5726	1
12088	12087	12091	1
12088	12089	12090	1
12088	12089	12092	1
12085	12086	12087	1
12087	12088	12089	1
12085	12090	12089	1
12085	12090	12094	1
12089	12090	12094	1
12090	12085	12093	1
12090	12089	12092	1
12098	12097	5537	1
12096	12095	5726	1
9176	9175	9186	1
9174	9175	9186	1
9186	9194	9188	1
9186	9194	9195	1
9176	9177	9184	1
9178	9177	9184	1
9184	4897	4887	1
9184	4897	4899	1
9175	9186	9187	1
9175	9186	9194	1
9175	9176	9177	1
9175	9176	9180	1
9175	9174	9179	1
9175	9174	9182	1
9177	9184	9185	1
9177	9184	4897	1
9177	9176	9180	1
9177	9178	9179	1
9177	9178	9181	1
9174	9175	9176	1
9176	9177	9178	1
9174	9179	9178	1
9174	9179	9183	1
9178	9179	9183	1
9179	9174	9182	1
9179	9178	9181	1
9187	9186	9194	1
9185	9184	4897	1
1190	1189	1200	1
1188	1189	1200	1
1200	5809	5803	1
1200	5809	5810	1
1190	1191	1198	1
1192	1191	1198	1
1171	1177	1198	1
1178	1177	1198	1
1189	1200	1201	1
1189	1200	5809	1
1189	1190	1191	1
1189	1190	1194	1
1189	1188	1193	1
1189	1188	1196	1
1191	1198	1199	1
1177	1198	1191	1
1191	1190	1194	1
1191	1192	1193	1
1191	1192	1195	1
1188	1189	1190	1
1190	1191	1192	1
1188	1193	1192	1
1188	1193	1197	1
1192	1193	1197	1
1193	1188	1196	1
1193	1192	1195	1
1201	1200	5809	1
1177	1198	1199	1
12899	12898	12909	1
12897	12898	12909	1
12909	7185	7175	1
12909	7185	7187	1
12899	12900	12907	1
12901	12900	12907	1
12907	7403	7396	1
12907	7403	7405	1
12898	12909	12910	1
12898	12909	7185	1
12898	12899	12900	1
12898	12899	12903	1
12898	12897	12902	1
12898	12897	12905	1
12900	12907	12908	1
12900	12907	7403	1
12900	12899	12903	1
12900	12901	12902	1
12900	12901	12904	1
12897	12898	12899	1
12899	12900	12901	1
12897	12902	12901	1
12897	12902	12906	1
12901	12902	12906	1
12902	12897	12905	1
12902	12901	12904	1
12910	12909	7185	1
12908	12907	7403	1
3497	3496	3507	1
3495	3496	3507	1
3497	3498	3505	1
3499	3498	3505	1
3505	9652	9642	1
3505	9652	9654	1
3496	3507	3508	1
3496	3507	3509	1
3496	3497	3498	1
3496	3497	3501	1
3496	3495	3500	1
3496	3495	3503	1
3498	3505	3506	1
3498	3505	9652	1
3498	3497	3501	1
3498	3499	3500	1
3498	3499	3502	1
3495	3496	3497	1
3497	3498	3499	1
3495	3500	3499	1
3495	3500	3504	1
3499	3500	3504	1
3500	3495	3503	1
3500	3499	3502	1
3508	3507	3509	1
3506	3505	9652	1
3077	3078	3085	1
3079	3078	3085	1
3085	7573	7567	1
3085	7573	7574	1
3077	3076	3087	1
3075	3076	3087	1
3078	3085	3086	1
3078	3085	7573	1
3076	3077	3078	1
3078	3077	3081	1
3078	3079	3080	1
3078	3079	3082	1
3076	3087	3089	1
3076	3087	3088	1
3076	3077	3081	1
3076	3075	3080	1
3076	3075	3083	1
3077	3078	3079	1
3075	3076	3077	1
3075	3080	3079	1
3079	3080	3084	1
3075	3080	3084	1
3080	3079	3082	1
3080	3075	3083	1
3086	3085	7573	1
3089	3087	3088	1
12759	12758	12769	1
12757	12758	12769	1
12769	6850	6840	1
12769	6850	6852	1
12759	12760	12767	1
12761	12760	12767	1
12767	6719	6709	1
12767	6719	6721	1
12758	12769	12770	1
12758	12769	6850	1
12758	12759	12760	1
12758	12759	12763	1
12758	12757	12762	1
12758	12757	12765	1
12760	12767	12768	1
12760	12767	6719	1
12760	12759	12763	1
12760	12761	12762	1
12760	12761	12764	1
12757	12758	12759	1
12759	12760	12761	1
12757	12762	12761	1
12757	12762	12766	1
12761	12762	12766	1
12762	12757	12765	1
12762	12761	12764	1
12770	12769	6850	1
12768	12767	6719	1
3092	3091	3102	1
3090	3091	3102	1
3092	3093	3100	1
3094	3093	3100	1
3100	7646	7640	1
3100	7646	7647	1
3091	3102	3104	1
3091	3102	3103	1
3091	3092	3093	1
3091	3092	3096	1
3091	3090	3095	1
3091	3090	3098	1
3093	3100	3101	1
3093	3100	7646	1
3093	3092	3096	1
3093	3094	3095	1
3093	3094	3097	1
3090	3091	3092	1
3092	3093	3094	1
3090	3095	3094	1
3090	3095	3099	1
3094	3095	3099	1
3095	3090	3098	1
3095	3094	3097	1
3104	3102	3103	1
3101	3100	7646	1
8108	8107	8118	1
8106	8107	8118	1
8118	8126	8120	1
8118	8126	8127	1
8108	8109	8116	1
8110	8109	8116	1
8116	8103	8093	1
8116	8103	8105	1
8107	8118	8119	1
8107	8118	8126	1
8107	8108	8109	1
8107	8108	8112	1
8107	8106	8111	1
8107	8106	8114	1
8109	8116	8117	1
8109	8116	8103	1
8109	8108	8112	1
8109	8110	8111	1
8109	8110	8113	1
8106	8107	8108	1
8108	8109	8110	1
8106	8111	8110	1
8106	8111	8115	1
8110	8111	8115	1
8111	8106	8114	1
8111	8110	8113	1
8119	8118	8126	1
8117	8116	8103	1
12493	12492	12503	1
12491	12492	12503	1
12503	6164	6157	1
12503	6164	6166	1
12493	12494	12501	1
12495	12494	12501	1
12501	7068	7061	1
12501	7068	7070	1
12492	12503	12504	1
12492	12503	6164	1
12492	12493	12494	1
12492	12493	12497	1
12492	12491	12496	1
12492	12491	12499	1
12494	12501	12502	1
12494	12501	7068	1
12494	12493	12497	1
12494	12495	12496	1
12494	12495	12498	1
12491	12492	12493	1
12493	12494	12495	1
12491	12496	12495	1
12491	12496	12500	1
12495	12496	12500	1
12496	12491	12499	1
12496	12495	12498	1
12504	12503	6164	1
12502	12501	7068	1
4074	4073	4084	1
4072	4073	4084	1
4084	4092	4086	1
4084	4092	4093	1
4074	4075	4082	1
4076	4075	4082	1
4082	9025	9015	1
4082	9025	9027	1
4073	4084	4085	1
4073	4084	4092	1
4073	4074	4075	1
4073	4074	4078	1
4073	4072	4077	1
4073	4072	4080	1
4075	4082	4083	1
4075	4082	9025	1
4075	4074	4078	1
4075	4076	4077	1
4075	4076	4079	1
4072	4073	4074	1
4074	4075	4076	1
4072	4077	4076	1
4072	4077	4081	1
4076	4077	4081	1
4077	4072	4080	1
4077	4076	4079	1
4085	4084	4092	1
4083	4082	9025	1
11737	11736	11747	1
11735	11736	11747	1
11747	4794	4787	1
11747	4794	4796	1
11737	11738	11745	1
11739	11738	11745	1
11745	6849	6842	1
11745	6849	6851	1
11736	11747	11748	1
11736	11747	4794	1
11736	11737	11738	1
11736	11737	11741	1
11736	11735	11740	1
11736	11735	11743	1
11738	11745	11746	1
11738	11745	6849	1
11738	11737	11741	1
11738	11739	11740	1
11738	11739	11742	1
11735	11736	11737	1
11737	11738	11739	1
11735	11740	11739	1
11735	11740	11744	1
11739	11740	11744	1
11740	11735	11743	1
11740	11739	11742	1
11748	11747	4794	1
11746	11745	6849	1
9379	9378	9389	1
9377	9378	9389	1
9389	9397	9391	1
9389	9397	9398	1
9379	9380	9387	1
9381	9380	9387	1
9387	10205	10195	1
9387	10205	10207	1
9378	9389	9390	1
9378	9389	9397	1
9378	9379	9380	1
9378	9379	9383	1
9378	9377	9382	1
9378	9377	9385	1
9380	9387	9388	1
9380	9387	10205	1
9380	9379	9383	1
9380	9381	9382	1
9380	9381	9384	1
9377	9378	9379	1
9379	9380	9381	1
9377	9382	9381	1
9377	9382	9386	1
9381	9382	9386	1
9382	9377	9385	1
9382	9381	9384	1
9390	9389	9397	1
9388	9387	10205	1
12787	12786	12797	1
12785	12786	12797	1
1683	1690	12797	1
1692	1690	12797	1
12787	12788	12795	1
12789	12788	12795	1
12795	6777	6767	1
12795	6777	6779	1
12786	12797	12798	1
1690	12797	12786	1
12786	12787	12788	1
12786	12787	12791	1
12786	12785	12790	1
12786	12785	12793	1
12788	12795	12796	1
12788	12795	6777	1
12788	12787	12791	1
12788	12789	12790	1
12788	12789	12792	1
12785	12786	12787	1
12787	12788	12789	1
12785	12790	12789	1
12785	12790	12794	1
12789	12790	12794	1
12790	12785	12793	1
12790	12789	12792	1
1690	12797	12798	1
12796	12795	6777	1
13795	13794	13805	1
13793	13794	13805	1
1962	1969	13805	1
1971	1969	13805	1
13795	13796	13803	1
13797	13796	13803	1
526	528	13803	1
529	528	13803	1
13794	13805	13806	1
1969	13805	13794	1
13794	13795	13796	1
13794	13795	13799	1
13794	13793	13798	1
13794	13793	13801	1
13796	13803	13804	1
528	13803	13796	1
13796	13795	13799	1
13796	13797	13798	1
13796	13797	13800	1
13793	13794	13795	1
13795	13796	13797	1
13793	13798	13797	1
13793	13798	13802	1
13797	13798	13802	1
13798	13793	13801	1
13798	13797	13800	1
1969	13805	13806	1
528	13803	13804	1
10503	10502	10513	1
10501	10502	10513	1
10513	10521	10515	1
10513	10521	10522	1
10503	10504	10511	1
10505	10504	10511	1
10511	6193	6186	1
10511	6193	6195	1
10502	10513	10514	1
10502	10513	10521	1
10502	10503	10504	1
10502	10503	10507	1
10502	10501	10506	1
10502	10501	10509	1
10504	10511	10512	1
10504	10511	6193	1
10504	10503	10507	1
10504	10505	10506	1
10504	10505	10508	1
10501	10502	10503	1
10503	10504	10505	1
10501	10506	10505	1
10501	10506	10510	1
10505	10506	10510	1
10506	10501	10509	1
10506	10505	10508	1
10514	10513	10521	1
10512	10511	6193	1
9598	9597	9608	1
9596	9597	9608	1
9608	9616	9610	1
9608	9616	9617	1
9598	9599	9606	1
9600	9599	9606	1
9606	4156	4146	1
9606	4156	4158	1
9597	9608	9609	1
9597	9608	9616	1
9597	9598	9599	1
9597	9598	9602	1
9597	9596	9601	1
9597	9596	9604	1
9599	9606	9607	1
9599	9606	4156	1
9599	9598	9602	1
9599	9600	9601	1
9599	9600	9603	1
9596	9597	9598	1
9598	9599	9600	1
9596	9601	9600	1
9596	9601	9605	1
9600	9601	9605	1
9601	9596	9604	1
9601	9600	9603	1
9609	9608	9616	1
9607	9606	4156	1
3797	3798	3805	1
3799	3798	3805	1
2380	2387	3805	1
2389	2387	3805	1
3797	3796	3807	1
3795	3796	3807	1
3798	3805	3806	1
2387	3805	3798	1
3796	3797	3798	1
3798	3797	3801	1
3798	3799	3800	1
3798	3799	3802	1
3796	3807	3808	1
3796	3807	3809	1
3796	3797	3801	1
3796	3795	3800	1
3796	3795	3803	1
3797	3798	3799	1
3795	3796	3797	1
3795	3800	3799	1
3799	3800	3804	1
3795	3800	3804	1
3800	3799	3802	1
3800	3795	3803	1
2387	3805	3806	1
3808	3807	3809	1
12479	12478	12489	1
12477	12478	12489	1
12489	6107	6097	1
12489	6107	6109	1
12479	12480	12487	1
12481	12480	12487	1
12487	7579	7569	1
12487	7579	7581	1
12478	12489	12490	1
12478	12489	6107	1
12478	12479	12480	1
12478	12479	12483	1
12478	12477	12482	1
12478	12477	12485	1
12480	12487	12488	1
12480	12487	7579	1
12480	12479	12483	1
12480	12481	12482	1
12480	12481	12484	1
12477	12478	12479	1
12479	12480	12481	1
12477	12482	12481	1
12477	12482	12486	1
12481	12482	12486	1
12482	12477	12485	1
12482	12481	12484	1
12490	12489	6107	1
12488	12487	7579	1
13417	13416	13427	1
13415	13416	13427	1
13427	8644	8637	1
13427	8644	8646	1
13417	13418	13425	1
13419	13418	13425	1
13425	9666	9659	1
13425	9666	9668	1
13416	13427	13428	1
13416	13427	8644	1
13416	13417	13418	1
13416	13417	13421	1
13416	13415	13420	1
13416	13415	13423	1
13418	13425	13426	1
13418	13425	9666	1
13418	13417	13421	1
13418	13419	13420	1
13418	13419	13422	1
13415	13416	13417	1
13417	13418	13419	1
13415	13420	13419	1
13415	13420	13424	1
13419	13420	13424	1
13420	13415	13423	1
13420	13419	13422	1
13428	13427	8644	1
13426	13425	9666	1
617	616	627	1
615	616	627	1
598	604	627	1
605	604	627	1
617	618	625	1
619	618	625	1
625	4373	4366	1
625	4373	4375	1
616	627	628	1
604	627	616	1
616	617	618	1
616	617	621	1
616	615	620	1
616	615	623	1
618	625	626	1
618	625	4373	1
618	617	621	1
618	619	620	1
618	619	622	1
615	616	617	1
617	618	619	1
615	620	619	1
615	620	624	1
619	620	624	1
620	615	623	1
620	619	622	1
604	627	628	1
626	625	4373	1
13389	13388	13399	1
13387	13388	13399	1
13399	8411	8401	1
13399	8411	8413	1
13389	13390	13397	1
13391	13390	13397	1
13397	8483	8476	1
13397	8483	8485	1
13388	13399	13400	1
13388	13399	8411	1
13388	13389	13390	1
13388	13389	13393	1
13388	13387	13392	1
13388	13387	13395	1
13390	13397	13398	1
13390	13397	8483	1
13390	13389	13393	1
13390	13391	13392	1
13390	13391	13394	1
13387	13388	13389	1
13389	13390	13391	1
13387	13392	13391	1
13387	13392	13396	1
13391	13392	13396	1
13392	13387	13395	1
13392	13391	13394	1
13400	13399	8411	1
13398	13397	8483	1
12927	12928	12935	1
12929	12928	12935	1
12935	8015	8005	1
12935	8015	8017	1
12927	12926	12937	1
12925	12926	12937	1
12937	7344	7337	1
12937	7344	7346	1
12928	12935	12936	1
12928	12935	8015	1
12928	12927	12926	1
12928	12927	12931	1
12928	12929	12930	1
12928	12929	12932	1
12926	12937	12938	1
12926	12937	7344	1
12926	12927	12931	1
12926	12925	12930	1
12926	12925	12933	1
12929	12928	12927	1
12927	12926	12925	1
12929	12930	12925	1
12929	12930	12934	1
12925	12930	12934	1
12930	12929	12932	1
12930	12925	12933	1
12936	12935	8015	1
12938	12937	7344	1
2777	2778	2785	1
2779	2778	2785	1
2785	5245	5238	1
2785	5245	5247	1
2777	2776	2787	1
2775	2776	2787	1
2778	2785	2786	1
2778	2785	5245	1
2776	2777	2778	1
2778	2777	2781	1
2778	2779	2780	1
2778	2779	2782	1
2776	2787	2788	1
2776	2787	2789	1
2776	2777	2781	1
2776	2775	2780	1
2776	2775	2783	1
2777	2778	2779	1
2775	2776	2777	1
2775	2780	2779	1
2779	2780	2784	1
2775	2780	2784	1
2780	2779	2782	1
2780	2775	2783	1
2786	2785	5245	1
2789	2787	2788	1
1791	1790	1801	1
1789	1790	1801	1
1801	10394	10387	1
1801	10394	10396	1
1791	1792	1799	1
1793	1792	1799	1
1772	1778	1799	1
1779	1778	1799	1
1790	1801	1802	1
1790	1801	10394	1
1790	1791	1792	1
1790	1791	1795	1
1790	1789	1794	1
1790	1789	1797	1
1792	1799	1800	1
1778	1799	1792	1
1792	1791	1795	1
1792	1793	1794	1
1792	1793	1796	1
1789	1790	1791	1
1791	1792	1793	1
1789	1794	1793	1
1789	1794	1798	1
1793	1794	1798	1
1794	1789	1797	1
1794	1793	1796	1
1802	1801	10394	1
1778	1799	1800	1
11089	11088	11099	1
11087	11088	11099	1
2552	2559	11099	1
2561	2559	11099	1
11089	11090	11097	1
11091	11090	11097	1
11097	11107	11101	1
11097	11107	11108	1
11088	11099	11100	1
2559	11099	11088	1
11088	11089	11090	1
11088	11089	11093	1
11088	11087	11092	1
11088	11087	11095	1
11090	11097	11098	1
11090	11097	11107	1
11090	11089	11093	1
11090	11091	11092	1
11090	11091	11094	1
11087	11088	11089	1
11089	11090	11091	1
11087	11092	11091	1
11087	11092	11096	1
11091	11092	11096	1
11092	11087	11095	1
11092	11091	11094	1
2559	11099	11100	1
11098	11097	11107	1
879	878	889	1
877	878	889	1
889	9200	9190	1
889	9200	9202	1
879	880	887	1
881	880	887	1
893	891	887	1
892	891	887	1
878	889	890	1
878	889	9200	1
878	879	880	1
878	879	883	1
878	877	882	1
878	877	885	1
880	887	888	1
891	887	880	1
880	879	883	1
880	881	882	1
880	881	884	1
877	878	879	1
879	880	881	1
877	882	881	1
877	882	886	1
881	882	886	1
882	877	885	1
882	881	884	1
890	889	9200	1
891	887	888	1
3557	3556	3567	1
3555	3556	3567	1
3557	3558	3565	1
3559	3558	3565	1
3565	10030	10023	1
3565	10030	10032	1
3556	3567	3568	1
3556	3567	3569	1
3556	3557	3558	1
3556	3557	3561	1
3556	3555	3560	1
3556	3555	3563	1
3558	3565	3566	1
3558	3565	10030	1
3558	3557	3561	1
3558	3559	3560	1
3558	3559	3562	1
3555	3556	3557	1
3557	3558	3559	1
3555	3560	3559	1
3555	3560	3564	1
3559	3560	3564	1
3560	3555	3563	1
3560	3559	3562	1
3569	3567	3568	1
3566	3565	10030	1
12969	12968	12979	1
12967	12968	12979	1
12979	7404	7394	1
12979	7404	7406	1
12969	12970	12977	1
12971	12970	12977	1
12977	8858	8852	1
12977	8858	8859	1
12968	12979	12980	1
12968	12979	7404	1
12968	12969	12970	1
12968	12969	12973	1
12968	12967	12972	1
12968	12967	12975	1
12970	12977	12978	1
12970	12977	8858	1
12970	12969	12973	1
12970	12971	12972	1
12970	12971	12974	1
12967	12968	12969	1
12969	12970	12971	1
12967	12972	12971	1
12967	12972	12976	1
12971	12972	12976	1
12972	12967	12975	1
12972	12971	12974	1
12980	12979	7404	1
12978	12977	8858	1
2457	2456	2467	1
2455	2456	2467	1
2467	8455	8445	1
2467	8455	8457	1
2457	2458	2465	1
2459	2458	2465	1
2438	2444	2465	1
2445	2444	2465	1
2456	2467	2468	1
2456	2467	8455	1
2456	2457	2458	1
2456	2457	2461	1
2456	2455	2460	1
2456	2455	2463	1
2458	2465	2466	1
2444	2465	2458	1
2458	2457	2461	1
2458	2459	2460	1
2458	2459	2462	1
2455	2456	2457	1
2457	2458	2459	1
2455	2460	2459	1
2455	2460	2464	1
2459	2460	2464	1
2460	2455	2463	1
2460	2459	2462	1
2468	2467	8455	1
2444	2465	2466	1
9408	9407	9418	1
9406	9407	9418	1
9418	9426	9420	1
9418	9426	9427	1
9408	9409	9416	1
9410	9409	9416	1
9416	10833	10826	1
9416	10833	10835	1
9407	9418	9419	1
9407	9418	9426	1
9407	9408	9409	1
9407	9408	9412	1
9407	9406	9411	1
9407	9406	9414	1
9409	9416	9417	1
9409	9416	10833	1
9409	9408	9412	1
9409	9410	9411	1
9409	9410	9413	1
9406	9407	9408	1
9408	9409	9410	1
9406	9411	9410	1
9406	9411	9415	1
9410	9411	9415	1
9411	9406	9414	1
9411	9410	9413	1
9419	9418	9426	1
9417	9416	10833	1
12339	12340	12347	1
12341	12340	12347	1
12347	5843	5836	1
12347	5843	5845	1
12339	12338	12349	1
12337	12338	12349	1
12349	8761	8754	1
12349	8761	8763	1
12340	12347	12348	1
12340	12347	5843	1
12340	12339	12338	1
12340	12339	12343	1
12340	12341	12342	1
12340	12341	12344	1
12338	12349	12350	1
12338	12349	8761	1
12338	12339	12343	1
12338	12337	12342	1
12338	12337	12345	1
12341	12340	12339	1
12339	12338	12337	1
12341	12342	12337	1
12341	12342	12346	1
12337	12342	12346	1
12342	12341	12344	1
12342	12337	12345	1
12348	12347	5843	1
12350	12349	8761	1
8225	8224	8235	1
8223	8224	8235	1
8235	8243	8237	1
8235	8243	8244	1
8225	8226	8233	1
8227	8226	8233	1
8233	9944	9934	1
8233	9944	9946	1
8224	8235	8236	1
8224	8235	8243	1
8224	8225	8226	1
8224	8225	8229	1
8224	8223	8228	1
8224	8223	8231	1
8226	8233	8234	1
8226	8233	9944	1
8226	8225	8229	1
8226	8227	8228	1
8226	8227	8230	1
8223	8224	8225	1
8225	8226	8227	1
8223	8228	8227	1
8223	8228	8232	1
8227	8228	8232	1
8228	8223	8231	1
8228	8227	8230	1
8236	8235	8243	1
8234	8233	9944	1
13557	13556	13567	1
13555	13556	13567	1
13567	9475	9468	1
13567	9475	9477	1
13557	13558	13565	1
13559	13558	13565	1
13565	9142	9132	1
13565	9142	9144	1
13556	13567	13568	1
13556	13567	9475	1
13556	13557	13558	1
13556	13557	13561	1
13556	13555	13560	1
13556	13555	13563	1
13558	13565	13566	1
13558	13565	9142	1
13558	13557	13561	1
13558	13559	13560	1
13558	13559	13562	1
13555	13556	13557	1
13557	13558	13559	1
13555	13560	13559	1
13555	13560	13564	1
13559	13560	13564	1
13560	13555	13563	1
13560	13559	13562	1
13568	13567	9475	1
13566	13565	9142	1
9672	9671	9682	1
9670	9671	9682	1
9682	5057	5047	1
9682	5057	5059	1
9672	9673	9680	1
9674	9673	9680	1
9680	9696	9686	1
9680	9696	9698	1
9671	9682	9683	1
9671	9682	5057	1
9671	9672	9673	1
9671	9672	9676	1
9671	9670	9675	1
9671	9670	9678	1
9673	9680	9681	1
9673	9680	9696	1
9673	9672	9676	1
9673	9674	9675	1
9673	9674	9677	1
9670	9671	9672	1
9672	9673	9674	1
9670	9675	9674	1
9670	9675	9679	1
9674	9675	9679	1
9675	9670	9678	1
9675	9674	9677	1
9683	9682	5057	1
9681	9680	9696	1
4045	4044	4055	1
4043	4044	4055	1
4055	4063	4057	1
4055	4063	4064	1
4045	4046	4053	1
4047	4046	4053	1
4053	7637	7627	1
4053	7637	7639	1
4044	4055	4056	1
4044	4055	4063	1
4044	4045	4046	1
4044	4045	4049	1
4044	4043	4048	1
4044	4043	4051	1
4046	4053	4054	1
4046	4053	7637	1
4046	4045	4049	1
4046	4047	4048	1
4046	4047	4050	1
4043	4044	4045	1
4045	4046	4047	1
4043	4048	4047	1
4043	4048	4052	1
4047	4048	4052	1
4048	4043	4051	1
4048	4047	4050	1
4056	4055	4063	1
4054	4053	7637	1
8577	8578	8585	1
8579	8578	8585	1
2583	2590	8585	1
2592	2590	8585	1
8577	8576	8587	1
8575	8576	8587	1
8587	8595	8589	1
8587	8595	8596	1
8578	8585	8586	1
2590	8585	8578	1
8578	8577	8576	1
8578	8577	8581	1
8578	8579	8580	1
8578	8579	8582	1
8576	8587	8588	1
8576	8587	8595	1
8576	8577	8581	1
8576	8575	8580	1
8576	8575	8583	1
8579	8578	8577	1
8577	8576	8575	1
8579	8580	8575	1
8579	8580	8584	1
8575	8580	8584	1
8580	8579	8582	1
8580	8575	8583	1
2590	8585	8586	1
8588	8587	8595	1
7657	7656	7667	1
7655	7656	7667	1
7667	7675	7669	1
7667	7675	7676	1
7657	7658	7665	1
7659	7658	7665	1
7665	7942	7932	1
7665	7942	7944	1
7656	7667	7668	1
7656	7667	7675	1
7656	7657	7658	1
7656	7657	7661	1
7656	7655	7660	1
7656	7655	7663	1
7658	7665	7666	1
7658	7665	7942	1
7658	7657	7661	1
7658	7659	7660	1
7658	7659	7662	1
7655	7656	7657	1
7657	7658	7659	1
7655	7660	7659	1
7655	7660	7664	1
7659	7660	7664	1
7660	7655	7663	1
7660	7659	7662	1
7668	7667	7675	1
7666	7665	7942	1
11779	11778	11789	1
11777	11778	11789	1
11789	8965	8958	1
11789	8965	8967	1
11779	11780	11787	1
11781	11780	11787	1
11787	4868	4858	1
11787	4868	4870	1
11778	11789	11790	1
11778	11789	8965	1
11778	11779	11780	1
11778	11779	11783	1
11778	11777	11782	1
11778	11777	11785	1
11780	11787	11788	1
11780	11787	4868	1
11780	11779	11783	1
11780	11781	11782	1
11780	11781	11784	1
11777	11778	11779	1
11779	11780	11781	1
11777	11782	11781	1
11777	11782	11786	1
11781	11782	11786	1
11782	11777	11785	1
11782	11781	11784	1
11790	11789	8965	1
11788	11787	4868	1
11807	11806	11817	1
11805	11806	11817	1
11817	9344	9337	1
11817	9344	9346	1
11807	11808	11815	1
11809	11808	11815	1
11815	4896	4889	1
11815	4896	4898	1
11806	11817	11818	1
11806	11817	9344	1
11806	11807	11808	1
11806	11807	11811	1
11806	11805	11810	1
11806	11805	11813	1
11808	11815	11816	1
11808	11815	4896	1
11808	11807	11811	1
11808	11809	11810	1
11808	11809	11812	1
11805	11806	11807	1
11807	11808	11809	1
11805	11810	11809	1
11805	11810	11814	1
11809	11810	11814	1
11810	11805	11813	1
11810	11809	11812	1
11818	11817	9344	1
11816	11815	4896	1
3900	3899	3910	1
3898	3899	3910	1
3910	3918	3912	1
3910	3918	3919	1
3900	3901	3908	1
3902	3901	3908	1
3908	9258	9248	1
3908	9258	9260	1
3899	3910	3911	1
3899	3910	3918	1
3899	3900	3901	1
3899	3900	3904	1
3899	3898	3903	1
3899	3898	3906	1
3901	3908	3909	1
3901	3908	9258	1
3901	3900	3904	1
3901	3902	3903	1
3901	3902	3905	1
3898	3899	3900	1
3900	3901	3902	1
3898	3903	3902	1
3898	3903	3907	1
3902	3903	3907	1
3903	3898	3906	1
3903	3902	3905	1
3911	3910	3918	1
3909	3908	9258	1
9481	9480	9491	1
9479	9480	9491	1
9491	7956	7949	1
9491	7956	7958	1
9481	9482	9489	1
9483	9482	9489	1
9489	9499	9493	1
9489	9499	9500	1
9480	9491	9492	1
9480	9491	7956	1
9480	9481	9482	1
9480	9481	9485	1
9480	9479	9484	1
9480	9479	9487	1
9482	9489	9490	1
9482	9489	9499	1
9482	9481	9485	1
9482	9483	9484	1
9482	9483	9486	1
9479	9480	9481	1
9481	9482	9483	1
9479	9484	9483	1
9479	9484	9488	1
9483	9484	9488	1
9484	9479	9487	1
9484	9483	9486	1
9492	9491	7956	1
9490	9489	9499	1
4626	4625	4636	1
4624	4625	4636	1
4636	4644	4638	1
4636	4644	4645	1
4626	4627	4634	1
4628	4627	4634	1
4634	8219	8212	1
4634	8219	8221	1
4625	4636	4637	1
4625	4636	4644	1
4625	4626	4627	1
4625	4626	4630	1
4625	4624	4629	1
4625	4624	4632	1
4627	4634	4635	1
4627	4634	8219	1
4627	4626	4630	1
4627	4628	4629	1
4627	4628	4631	1
4624	4625	4626	1
4626	4627	4628	1
4624	4629	4628	1
4624	4629	4633	1
4628	4629	4633	1
4629	4624	4632	1
4629	4628	4631	1
4637	4636	4644	1
4635	4634	8219	1
12661	12660	12671	1
12659	12660	12671	1
12671	10863	10853	1
12671	10863	10865	1
12661	12662	12669	1
12663	12662	12669	1
12669	6486	6476	1
12669	6486	6488	1
12660	12671	12672	1
12660	12671	10863	1
12660	12661	12662	1
12660	12661	12665	1
12660	12659	12664	1
12660	12659	12667	1
12662	12669	12670	1
12662	12669	6486	1
12662	12661	12665	1
12662	12663	12664	1
12662	12663	12666	1
12659	12660	12661	1
12661	12662	12663	1
12659	12664	12663	1
12659	12664	12668	1
12663	12664	12668	1
12664	12659	12667	1
12664	12663	12666	1
12672	12671	10863	1
12670	12669	6486	1
12913	12912	12923	1
12911	12912	12923	1
12923	7286	7279	1
12923	7286	7288	1
12913	12914	12921	1
12915	12914	12921	1
12921	10527	10517	1
12921	10527	10529	1
12912	12923	12924	1
12912	12923	7286	1
12912	12913	12914	1
12912	12913	12917	1
12912	12911	12916	1
12912	12911	12919	1
12914	12921	12922	1
12914	12921	10527	1
12914	12913	12917	1
12914	12915	12916	1
12914	12915	12918	1
12911	12912	12913	1
12913	12914	12915	1
12911	12916	12915	1
12911	12916	12920	1
12915	12916	12920	1
12916	12911	12919	1
12916	12915	12918	1
12924	12923	7286	1
12922	12921	10527	1
710	709	720	1
708	709	720	1
691	697	720	1
698	697	720	1
710	711	718	1
712	711	718	1
718	6136	6126	1
718	6136	6138	1
709	720	721	1
697	720	709	1
709	710	711	1
709	710	714	1
709	708	713	1
709	708	716	1
711	718	719	1
711	718	6136	1
711	710	714	1
711	712	713	1
711	712	715	1
708	709	710	1
710	711	712	1
708	713	712	1
708	713	717	1
712	713	717	1
713	708	716	1
713	712	715	1
697	720	721	1
719	718	6136	1
12185	12184	12195	1
12183	12184	12195	1
2147	2154	12195	1
2156	2154	12195	1
12185	12186	12193	1
12187	12186	12193	1
12193	5624	5617	1
12193	5624	5626	1
12184	12195	12196	1
2154	12195	12184	1
12184	12185	12186	1
12184	12185	12189	1
12184	12183	12188	1
12184	12183	12191	1
12186	12193	12194	1
12186	12193	5624	1
12186	12185	12189	1
12186	12187	12188	1
12186	12187	12190	1
12183	12184	12185	1
12185	12186	12187	1
12183	12188	12187	1
12183	12188	12192	1
12187	12188	12192	1
12188	12183	12191	1
12188	12187	12190	1
2154	12195	12196	1
12194	12193	5624	1
13221	13220	13231	1
13219	13220	13231	1
13231	8190	8180	1
13231	8190	8192	1
13221	13222	13229	1
13223	13222	13229	1
2318	2325	13229	1
2327	2325	13229	1
13220	13231	13232	1
13220	13231	8190	1
13220	13221	13222	1
13220	13221	13225	1
13220	13219	13224	1
13220	13219	13227	1
13222	13229	13230	1
2325	13229	13222	1
13222	13221	13225	1
13222	13223	13224	1
13222	13223	13226	1
13219	13220	13221	1
13221	13222	13223	1
13219	13224	13223	1
13219	13224	13228	1
13223	13224	13228	1
13224	13219	13227	1
13224	13223	13226	1
13232	13231	8190	1
2325	13229	13230	1
7292	7291	7302	1
7290	7291	7302	1
7302	8493	8487	1
7302	8493	8494	1
7292	7293	7300	1
7294	7293	7300	1
7300	7310	7304	1
7300	7310	7311	1
7291	7302	7303	1
7291	7302	8493	1
7291	7292	7293	1
7291	7292	7296	1
7291	7290	7295	1
7291	7290	7298	1
7293	7300	7301	1
7293	7300	7310	1
7293	7292	7296	1
7293	7294	7295	1
7293	7294	7297	1
7290	7291	7292	1
7292	7293	7294	1
7290	7295	7294	1
7290	7295	7299	1
7294	7295	7299	1
7295	7290	7298	1
7295	7294	7297	1
7303	7302	8493	1
7301	7300	7310	1
13669	13668	13679	1
13667	13668	13679	1
13679	10147	10137	1
13679	10147	10149	1
13669	13670	13677	1
13671	13670	13677	1
2411	2418	13677	1
2420	2418	13677	1
13668	13679	13680	1
13668	13679	10147	1
13668	13669	13670	1
13668	13669	13673	1
13668	13667	13672	1
13668	13667	13675	1
13670	13677	13678	1
2418	13677	13670	1
13670	13669	13673	1
13670	13671	13672	1
13670	13671	13674	1
13667	13668	13669	1
13669	13670	13671	1
13667	13672	13671	1
13667	13672	13676	1
13671	13672	13676	1
13672	13667	13675	1
13672	13671	13674	1
13680	13679	10147	1
2418	13677	13678	1
1836	1835	1846	1
1834	1835	1846	1
1846	9199	9192	1
1846	9199	9201	1
1836	1837	1844	1
1838	1837	1844	1
1850	1848	1844	1
1849	1848	1844	1
1835	1846	1847	1
1835	1846	9199	1
1835	1836	1837	1
1835	1836	1840	1
1835	1834	1839	1
1835	1834	1842	1
1837	1844	1845	1
1848	1844	1837	1
1837	1836	1840	1
1837	1838	1839	1
1837	1838	1841	1
1834	1835	1836	1
1836	1837	1838	1
1834	1839	1838	1
1834	1839	1843	1
1838	1839	1843	1
1839	1834	1842	1
1839	1838	1841	1
1847	1846	9199	1
1848	1844	1845	1
12325	12324	12335	1
12323	12324	12335	1
12335	5814	5807	1
12335	5814	5816	1
12325	12326	12333	1
12327	12326	12333	1
1082	1084	12333	1
1085	1084	12333	1
12324	12335	12336	1
12324	12335	5814	1
12324	12325	12326	1
12324	12325	12329	1
12324	12323	12328	1
12324	12323	12331	1
12326	12333	12334	1
1084	12333	12326	1
12326	12325	12329	1
12326	12327	12328	1
12326	12327	12330	1
12323	12324	12325	1
12325	12326	12327	1
12323	12328	12327	1
12323	12328	12332	1
12327	12328	12332	1
12328	12323	12331	1
12328	12327	12330	1
12336	12335	5814	1
1084	12333	12334	1
1437	1436	1447	1
1435	1436	1447	1
1451	1449	1447	1
1450	1449	1447	1
1437	1438	1445	1
1439	1438	1445	1
1445	6990	6984	1
1445	6990	6991	1
1436	1447	1448	1
1449	1447	1436	1
1436	1437	1438	1
1436	1437	1441	1
1436	1435	1440	1
1436	1435	1443	1
1438	1445	1446	1
1438	1445	6990	1
1438	1437	1441	1
1438	1439	1440	1
1438	1439	1442	1
1435	1436	1437	1
1437	1438	1439	1
1435	1440	1439	1
1435	1440	1444	1
1439	1440	1444	1
1440	1435	1443	1
1440	1439	1442	1
1449	1447	1448	1
1446	1445	6990	1
5077	5078	5085	1
5079	5078	5085	1
5085	10483	10473	1
5085	10483	10485	1
5077	5076	5087	1
5075	5076	5087	1
5087	5095	5089	1
5087	5095	5096	1
5078	5085	5086	1
5078	5085	10483	1
5076	5077	5078	1
5078	5077	5081	1
5078	5079	5080	1
5078	5079	5082	1
5076	5087	5088	1
5076	5087	5095	1
5076	5077	5081	1
5076	5075	5080	1
5076	5075	5083	1
5077	5078	5079	1
5075	5076	5077	1
5075	5080	5079	1
5079	5080	5084	1
5075	5080	5084	1
5080	5079	5082	1
5080	5075	5083	1
5086	5085	10483	1
5088	5087	5095	1
85	84	95	1
83	84	95	1
72	74	95	1
75	74	95	1
85	86	93	1
87	86	93	1
93	7024	7017	1
93	7024	7026	1
84	95	96	1
74	95	84	1
84	85	86	1
84	85	89	1
84	83	88	1
84	83	91	1
86	93	94	1
86	93	7024	1
86	85	89	1
86	87	88	1
86	87	90	1
83	84	85	1
85	86	87	1
83	88	87	1
83	88	92	1
87	88	92	1
88	83	91	1
88	87	90	1
74	95	96	1
94	93	7024	1
8811	8810	8821	1
8809	8810	8821	1
8821	8829	8823	1
8821	8829	8830	1
8811	8812	8819	1
8813	8812	8819	1
8819	5377	5367	1
8819	5377	5379	1
8810	8821	8822	1
8810	8821	8829	1
8810	8811	8812	1
8810	8811	8815	1
8810	8809	8814	1
8810	8809	8817	1
8812	8819	8820	1
8812	8819	5377	1
8812	8811	8815	1
8812	8813	8814	1
8812	8813	8816	1
8809	8810	8811	1
8811	8812	8813	1
8809	8814	8813	1
8809	8814	8818	1
8813	8814	8818	1
8814	8809	8817	1
8814	8813	8816	1
8822	8821	8829	1
8820	8819	5377	1
1221	1222	1229	1
1223	1222	1229	1
1202	1208	1229	1
1209	1208	1229	1
1221	1220	1231	1
1219	1220	1231	1
1222	1229	1230	1
1208	1229	1222	1
1220	1221	1222	1
1222	1221	1225	1
1222	1223	1224	1
1222	1223	1226	1
1220	1231	1233	1
1220	1231	1232	1
1220	1221	1225	1
1220	1219	1224	1
1220	1219	1227	1
1221	1222	1223	1
1219	1220	1221	1
1219	1224	1223	1
1223	1224	1228	1
1219	1224	1228	1
1224	1223	1226	1
1224	1219	1227	1
1208	1229	1230	1
1232	1231	1233	1
13809	13808	13819	1
13807	13808	13819	1
1930	1937	13819	1
1939	1937	13819	1
13809	13810	13817	1
13811	13810	13817	1
726	733	13817	1
735	733	13817	1
13808	13819	13820	1
1937	13819	13808	1
13808	13809	13810	1
13808	13809	13813	1
13808	13807	13812	1
13808	13807	13815	1
13810	13817	13818	1
733	13817	13810	1
13810	13809	13813	1
13810	13811	13812	1
13810	13811	13814	1
13807	13808	13809	1
13809	13810	13811	1
13807	13812	13811	1
13807	13812	13816	1
13811	13812	13816	1
13812	13807	13815	1
13812	13811	13814	1
1937	13819	13820	1
733	13817	13818	1
1111	1110	1121	1
1109	1110	1121	1
1121	7039	7032	1
1121	7039	7041	1
1111	1112	1119	1
1113	1112	1119	1
1092	1098	1119	1
1099	1098	1119	1
1110	1121	1122	1
1110	1121	7039	1
1110	1111	1112	1
1110	1111	1115	1
1110	1109	1114	1
1110	1109	1117	1
1112	1119	1120	1
1098	1119	1112	1
1112	1111	1115	1
1112	1113	1114	1
1112	1113	1116	1
1109	1110	1111	1
1111	1112	1113	1
1109	1114	1113	1
1109	1114	1118	1
1113	1114	1118	1
1114	1109	1117	1
1114	1113	1116	1
1122	1121	7039	1
1098	1119	1120	1
11695	11694	11705	1
11693	11694	11705	1
11705	4737	4727	1
11705	4737	4739	1
11695	11696	11703	1
11697	11696	11703	1
2349	2356	11703	1
2358	2356	11703	1
11694	11705	11706	1
11694	11705	4737	1
11694	11695	11696	1
11694	11695	11699	1
11694	11693	11698	1
11694	11693	11701	1
11696	11703	11704	1
2356	11703	11696	1
11696	11695	11699	1
11696	11697	11698	1
11696	11697	11700	1
11693	11694	11695	1
11695	11696	11697	1
11693	11698	11697	1
11693	11698	11702	1
11697	11698	11702	1
11698	11693	11701	1
11698	11697	11700	1
11706	11705	4737	1
2356	11703	11704	1
9905	9904	9915	1
9903	9904	9915	1
9915	9923	9917	1
9915	9923	9924	1
9905	9906	9913	1
9907	9906	9913	1
9913	5946	5939	1
9913	5946	5948	1
9904	9915	9916	1
9904	9915	9923	1
9904	9905	9906	1
9904	9905	9909	1
9904	9903	9908	1
9904	9903	9911	1
9906	9913	9914	1
9906	9913	5946	1
9906	9905	9909	1
9906	9907	9908	1
9906	9907	9910	1
9903	9904	9905	1
9905	9906	9907	1
9903	9908	9907	1
9903	9908	9912	1
9907	9908	9912	1
9908	9903	9911	1
9908	9907	9910	1
9916	9915	9923	1
9914	9913	5946	1
11513	11512	11523	1
11511	11512	11523	1
11523	9929	9919	1
11523	9929	9931	1
11513	11514	11521	1
11515	11514	11521	1
11521	4389	4379	1
11521	4389	4391	1
11512	11523	11524	1
11512	11523	9929	1
11512	11513	11514	1
11512	11513	11517	1
11512	11511	11516	1
11512	11511	11519	1
11514	11521	11522	1
11514	11521	4389	1
11514	11513	11517	1
11514	11515	11516	1
11514	11515	11518	1
11511	11512	11513	1
11513	11514	11515	1
11511	11516	11515	1
11511	11516	11520	1
11515	11516	11520	1
11516	11511	11519	1
11516	11515	11518	1
11524	11523	9929	1
11522	11521	4389	1
401	400	411	1
399	400	411	1
411	11083	11076	1
411	11083	11085	1
401	402	409	1
403	402	409	1
382	388	409	1
389	388	409	1
400	411	412	1
400	411	11083	1
400	401	402	1
400	401	405	1
400	399	404	1
400	399	407	1
402	409	410	1
388	409	402	1
402	401	405	1
402	403	404	1
402	403	406	1
399	400	401	1
401	402	403	1
399	404	403	1
399	404	408	1
403	404	408	1
404	399	407	1
404	403	406	1
412	411	11083	1
388	409	410	1
463	464	471	1
465	464	471	1
444	450	471	1
451	450	471	1
463	462	473	1
461	462	473	1
473	4418	4408	1
473	4418	4420	1
464	471	472	1
450	471	464	1
462	463	464	1
464	463	467	1
464	465	466	1
464	465	468	1
462	473	474	1
462	473	4418	1
462	463	467	1
462	461	466	1
462	461	469	1
463	464	465	1
461	462	463	1
461	466	465	1
465	466	470	1
461	466	470	1
466	465	468	1
466	461	469	1
450	471	472	1
474	473	4418	1
1484	1483	1494	1
1482	1483	1494	1
1494	10404	10398	1
1494	10404	10405	1
1484	1485	1492	1
1486	1485	1492	1
1465	1471	1492	1
1472	1471	1492	1
1483	1494	1495	1
1483	1494	10404	1
1483	1484	1485	1
1483	1484	1488	1
1483	1482	1487	1
1483	1482	1490	1
1485	1492	1493	1
1471	1492	1485	1
1485	1484	1488	1
1485	1486	1487	1
1485	1486	1489	1
1482	1483	1484	1
1484	1485	1486	1
1482	1487	1486	1
1482	1487	1491	1
1486	1487	1491	1
1487	1482	1490	1
1487	1486	1489	1
1495	1494	10404	1
1471	1492	1493	1
834	833	844	1
832	833	844	1
815	821	844	1
822	821	844	1
834	835	842	1
836	835	842	1
571	578	842	1
580	578	842	1
833	844	845	1
821	844	833	1
833	834	835	1
833	834	838	1
833	832	837	1
833	832	840	1
835	842	843	1
578	842	835	1
835	834	838	1
835	836	837	1
835	836	839	1
832	833	834	1
834	835	836	1
832	837	836	1
832	837	841	1
836	837	841	1
837	832	840	1
837	836	839	1
821	844	845	1
578	842	843	1
2732	2731	2742	1
2730	2731	2742	1
2732	2733	2740	1
2734	2733	2740	1
2740	4998	4991	1
2740	4998	5000	1
2731	2742	2743	1
2731	2742	2744	1
2731	2732	2733	1
2731	2732	2736	1
2731	2730	2735	1
2731	2730	2738	1
2733	2740	2741	1
2733	2740	4998	1
2733	2732	2736	1
2733	2734	2735	1
2733	2734	2737	1
2730	2731	2732	1
2732	2733	2734	1
2730	2735	2734	1
2730	2735	2739	1
2734	2735	2739	1
2735	2730	2738	1
2735	2734	2737	1
2743	2742	2744	1
2741	2740	4998	1
117	116	127	1
115	116	127	1
127	11166	11160	1
127	11166	11167	1
117	118	125	1
119	118	125	1
104	106	125	1
107	106	125	1
116	127	128	1
116	127	11166	1
116	117	118	1
116	117	121	1
116	115	120	1
116	115	123	1
118	125	126	1
106	125	118	1
118	117	121	1
118	119	120	1
118	119	122	1
115	116	117	1
117	118	119	1
115	120	119	1
115	120	124	1
119	120	124	1
120	115	123	1
120	119	122	1
128	127	11166	1
106	125	126	1
3958	3957	3968	1
3956	3957	3968	1
3968	7985	7978	1
3968	7985	7987	1
3958	3959	3966	1
3960	3959	3966	1
3966	3976	3970	1
3966	3976	3977	1
3957	3968	3969	1
3957	3968	7985	1
3957	3958	3959	1
3957	3958	3962	1
3957	3956	3961	1
3957	3956	3964	1
3959	3966	3967	1
3959	3966	3976	1
3959	3958	3962	1
3959	3960	3961	1
3959	3960	3963	1
3956	3957	3958	1
3958	3959	3960	1
3956	3961	3960	1
3956	3961	3965	1
3960	3961	3965	1
3961	3956	3964	1
3961	3960	3963	1
3969	3968	7985	1
3967	3966	3976	1
12395	12394	12405	1
12393	12394	12405	1
2178	2185	12405	1
2187	2185	12405	1
12395	12396	12403	1
12397	12396	12403	1
12403	5947	5937	1
12403	5947	5949	1
12394	12405	12406	1
2185	12405	12394	1
12394	12395	12396	1
12394	12395	12399	1
12394	12393	12398	1
12394	12393	12401	1
12396	12403	12404	1
12396	12403	5947	1
12396	12395	12399	1
12396	12397	12398	1
12396	12397	12400	1
12393	12394	12395	1
12395	12396	12397	1
12393	12398	12397	1
12393	12398	12402	1
12397	12398	12402	1
12398	12393	12401	1
12398	12397	12400	1
2185	12405	12406	1
12404	12403	5947	1
11919	11918	11929	1
11917	11918	11929	1
11929	5130	5120	1
11929	5130	5132	1
11919	11920	11927	1
11921	11920	11927	1
1377	1384	11927	1
1386	1384	11927	1
11918	11929	11930	1
11918	11929	5130	1
11918	11919	11920	1
11918	11919	11923	1
11918	11917	11922	1
11918	11917	11925	1
11920	11927	11928	1
1384	11927	11920	1
11920	11919	11923	1
11920	11921	11922	1
11920	11921	11924	1
11917	11918	11919	1
11919	11920	11921	1
11917	11922	11921	1
11917	11922	11926	1
11921	11922	11926	1
11922	11917	11925	1
11922	11921	11924	1
11930	11929	5130	1
1384	11927	11928	1
10883	10882	10893	1
10881	10882	10893	1
10893	10901	10895	1
10893	10901	10902	1
10883	10884	10891	1
10885	10884	10891	1
10891	9054	9044	1
10891	9054	9056	1
10882	10893	10894	1
10882	10893	10901	1
10882	10883	10884	1
10882	10883	10887	1
10882	10881	10886	1
10882	10881	10889	1
10884	10891	10892	1
10884	10891	9054	1
10884	10883	10887	1
10884	10885	10886	1
10884	10885	10888	1
10881	10882	10883	1
10883	10884	10885	1
10881	10886	10885	1
10881	10886	10890	1
10885	10886	10890	1
10886	10881	10889	1
10886	10885	10888	1
10894	10893	10901	1
10892	10891	9054	1
3929	3928	3939	1
3927	3928	3939	1
3939	6878	6871	1
3939	6878	6880	1
3929	3930	3937	1
3931	3930	3937	1
3937	3947	3941	1
3937	3947	3948	1
3928	3939	3940	1
3928	3939	6878	1
3928	3929	3930	1
3928	3929	3933	1
3928	3927	3932	1
3928	3927	3935	1
3930	3937	3938	1
3930	3937	3947	1
3930	3929	3933	1
3930	3931	3932	1
3930	3931	3934	1
3927	3928	3929	1
3929	3930	3931	1
3927	3932	3931	1
3927	3932	3936	1
3931	3932	3936	1
3932	3927	3935	1
3932	3931	3934	1
3940	3939	6878	1
3938	3937	3947	1
13123	13122	13133	1
13121	13122	13133	1
13133	7883	7876	1
13133	7883	7885	1
13123	13124	13131	1
13125	13124	13131	1
1206	1213	13131	1
1215	1213	13131	1
13122	13133	13134	1
13122	13133	7883	1
13122	13123	13124	1
13122	13123	13127	1
13122	13121	13126	1
13122	13121	13129	1
13124	13131	13132	1
1213	13131	13124	1
13124	13123	13127	1
13124	13125	13126	1
13124	13125	13128	1
13121	13122	13123	1
13123	13124	13125	1
13121	13126	13125	1
13121	13126	13130	1
13125	13126	13130	1
13126	13121	13129	1
13126	13125	13128	1
13134	13133	7883	1
1213	13131	13132	1
13151	13150	13161	1
13149	13150	13161	1
13161	7941	7934	1
13161	7941	7943	1
13151	13152	13159	1
13153	13152	13159	1
13159	9228	9221	1
13159	9228	9230	1
13150	13161	13162	1
13150	13161	7941	1
13150	13151	13152	1
13150	13151	13155	1
13150	13149	13154	1
13150	13149	13157	1
13152	13159	13160	1
13152	13159	9228	1
13152	13151	13155	1
13152	13153	13154	1
13152	13153	13156	1
13149	13150	13151	1
13151	13152	13153	1
13149	13154	13153	1
13149	13154	13158	1
13153	13154	13158	1
13154	13149	13157	1
13154	13153	13156	1
13162	13161	7941	1
13160	13159	9228	1
3362	3361	3372	1
3360	3361	3372	1
3362	3363	3370	1
3364	3363	3370	1
3370	9084	9074	1
3370	9084	9086	1
3361	3372	3373	1
3361	3372	3374	1
3361	3362	3363	1
3361	3362	3366	1
3361	3360	3365	1
3361	3360	3368	1
3363	3370	3371	1
3363	3370	9084	1
3363	3362	3366	1
3363	3364	3365	1
3363	3364	3367	1
3360	3361	3362	1
3362	3363	3364	1
3360	3365	3364	1
3360	3365	3369	1
3364	3365	3369	1
3365	3360	3368	1
3365	3364	3367	1
3373	3372	3374	1
3371	3370	9084	1
4771	4770	4781	1
4769	4770	4781	1
4781	9564	9554	1
4781	9564	9566	1
4771	4772	4779	1
4773	4772	4779	1
4779	4789	4783	1
4779	4789	4790	1
4770	4781	4782	1
4770	4781	9564	1
4770	4771	4772	1
4770	4771	4775	1
4770	4769	4774	1
4770	4769	4777	1
4772	4779	4780	1
4772	4779	4789	1
4772	4771	4775	1
4772	4773	4774	1
4772	4773	4776	1
4769	4770	4771	1
4771	4772	4773	1
4769	4774	4773	1
4769	4774	4778	1
4773	4774	4778	1
4774	4769	4777	1
4774	4773	4776	1
4782	4781	9564	1
4780	4779	4789	1
11653	11652	11663	1
11651	11652	11663	1
11663	4679	4669	1
11663	4679	4681	1
11653	11654	11661	1
11655	11654	11661	1
11661	6281	6274	1
11661	6281	6283	1
11652	11663	11664	1
11652	11663	4679	1
11652	11653	11654	1
11652	11653	11657	1
11652	11651	11656	1
11652	11651	11659	1
11654	11661	11662	1
11654	11661	6281	1
11654	11653	11657	1
11654	11655	11656	1
11654	11655	11658	1
11651	11652	11653	1
11653	11654	11655	1
11651	11656	11655	1
11651	11656	11660	1
11655	11656	11660	1
11656	11651	11659	1
11656	11655	11658	1
11664	11663	4679	1
11662	11661	6281	1
2272	2271	2282	1
2270	2271	2282	1
2282	9646	9640	1
2282	9646	9647	1
2272	2273	2280	1
2274	2273	2280	1
2257	2264	2280	1
2266	2264	2280	1
2271	2282	2283	1
2271	2282	9646	1
2271	2272	2273	1
2271	2272	2276	1
2271	2270	2275	1
2271	2270	2278	1
2273	2280	2281	1
2264	2280	2273	1
2273	2272	2276	1
2273	2274	2275	1
2273	2274	2277	1
2270	2271	2272	1
2272	2273	2274	1
2270	2275	2274	1
2270	2275	2279	1
2274	2275	2279	1
2275	2270	2278	1
2275	2274	2277	1
2283	2282	9646	1
2264	2280	2281	1
1977	1976	1987	1
1975	1976	1987	1
1958	1964	1987	1
1965	1964	1987	1
1977	1978	1985	1
1979	1978	1985	1
1985	4999	4989	1
1985	4999	5001	1
1976	1987	1988	1
1964	1987	1976	1
1976	1977	1978	1
1976	1977	1981	1
1976	1975	1980	1
1976	1975	1983	1
1978	1985	1986	1
1978	1985	4999	1
1978	1977	1981	1
1978	1979	1980	1
1978	1979	1982	1
1975	1976	1977	1
1977	1978	1979	1
1975	1980	1979	1
1975	1980	1984	1
1979	1980	1984	1
1980	1975	1983	1
1980	1979	1982	1
1964	1987	1988	1
1986	1985	4999	1
11667	11666	11677	1
11665	11666	11677	1
11677	8747	8737	1
11677	8747	8749	1
11667	11668	11675	1
11669	11668	11675	1
11675	4707	4700	1
11675	4707	4709	1
11666	11677	11678	1
11666	11677	8747	1
11666	11667	11668	1
11666	11667	11671	1
11666	11665	11670	1
11666	11665	11673	1
11668	11675	11676	1
11668	11675	4707	1
11668	11667	11671	1
11668	11669	11670	1
11668	11669	11672	1
11665	11666	11667	1
11667	11668	11669	1
11665	11670	11669	1
11665	11670	11674	1
11669	11670	11674	1
11670	11665	11673	1
11670	11669	11672	1
11678	11677	8747	1
11676	11675	4707	1
13207	13206	13217	1
13205	13206	13217	1
13217	8160	8153	1
13217	8160	8162	1
13207	13208	13215	1
13209	13208	13215	1
13215	9563	9556	1
13215	9563	9565	1
13206	13217	13218	1
13206	13217	8160	1
13206	13207	13208	1
13206	13207	13211	1
13206	13205	13210	1
13206	13205	13213	1
13208	13215	13216	1
13208	13215	9563	1
13208	13207	13211	1
13208	13209	13210	1
13208	13209	13212	1
13205	13206	13207	1
13207	13208	13209	1
13205	13210	13209	1
13205	13210	13214	1
13209	13210	13214	1
13210	13205	13213	1
13210	13209	13212	1
13218	13217	8160	1
13216	13215	9563	1
5222	5221	5232	1
5220	5221	5232	1
5232	10118	10108	1
5232	10118	10120	1
5222	5223	5230	1
5224	5223	5230	1
5230	5240	5234	1
5230	5240	5241	1
5221	5232	5233	1
5221	5232	10118	1
5221	5222	5223	1
5221	5222	5226	1
5221	5220	5225	1
5221	5220	5228	1
5223	5230	5231	1
5223	5230	5240	1
5223	5222	5226	1
5223	5224	5225	1
5223	5224	5227	1
5220	5221	5222	1
5222	5223	5224	1
5220	5225	5224	1
5220	5225	5229	1
5224	5225	5229	1
5225	5220	5228	1
5225	5224	5227	1
5233	5232	10118	1
5231	5230	5240	1
12731	12730	12741	1
12729	12730	12741	1
12741	8498	8491	1
12741	8498	8500	1
12731	12732	12739	1
12733	12732	12739	1
12739	6646	6636	1
12739	6646	6648	1
12730	12741	12742	1
12730	12741	8498	1
12730	12731	12732	1
12730	12731	12735	1
12730	12729	12734	1
12730	12729	12737	1
12732	12739	12740	1
12732	12739	6646	1
12732	12731	12735	1
12732	12733	12734	1
12732	12733	12736	1
12729	12730	12731	1
12731	12732	12733	1
12729	12734	12733	1
12729	12734	12738	1
12733	12734	12738	1
12734	12729	12737	1
12734	12733	12736	1
12742	12741	8498	1
12740	12739	6646	1
11527	11526	11537	1
11525	11526	11537	1
11537	7098	7088	1
11537	7098	7100	1
11527	11528	11535	1
11529	11528	11535	1
11535	4417	4410	1
11535	4417	4419	1
11526	11537	11538	1
11526	11537	7098	1
11526	11527	11528	1
11526	11527	11531	1
11526	11525	11530	1
11526	11525	11533	1
11528	11535	11536	1
11528	11535	4417	1
11528	11527	11531	1
11528	11529	11530	1
11528	11529	11532	1
11525	11526	11527	1
11527	11528	11529	1
11525	11530	11529	1
11525	11530	11534	1
11529	11530	11534	1
11530	11525	11533	1
11530	11529	11532	1
11538	11537	7098	1
11536	11535	4417	1
1559	1558	1569	1
1557	1558	1569	1
1577	1579	1569	1
1580	1579	1569	1
1559	1560	1567	1
1561	1560	1567	1
1567	8220	8210	1
1567	8220	8222	1
1558	1569	1570	1
1579	1569	1558	1
1558	1559	1560	1
1558	1559	1563	1
1558	1557	1562	1
1558	1557	1565	1
1560	1567	1568	1
1560	1567	8220	1
1560	1559	1563	1
1560	1561	1562	1
1560	1561	1564	1
1557	1558	1559	1
1559	1560	1561	1
1557	1562	1561	1
1557	1562	1566	1
1561	1562	1566	1
1562	1557	1565	1
1562	1561	1564	1
1579	1569	1570	1
1568	1567	8220	1
6404	6403	6414	1
6402	6403	6414	1
6414	6422	6416	1
6414	6422	6423	1
6404	6405	6412	1
6406	6405	6412	1
6412	9621	9614	1
6412	9621	9623	1
6403	6414	6415	1
6403	6414	6422	1
6403	6404	6405	1
6403	6404	6408	1
6403	6402	6407	1
6403	6402	6410	1
6405	6412	6413	1
6405	6412	9621	1
6405	6404	6408	1
6405	6406	6407	1
6405	6406	6409	1
6402	6403	6404	1
6404	6405	6406	1
6402	6407	6406	1
6402	6407	6411	1
6406	6407	6411	1
6407	6402	6410	1
6407	6406	6409	1
6415	6414	6422	1
6413	6412	9621	1
12815	12814	12825	1
12813	12814	12825	1
12825	9432	9422	1
12825	9432	9434	1
12815	12816	12823	1
12817	12816	12823	1
12823	6981	6971	1
12823	6981	6983	1
12814	12825	12826	1
12814	12825	9432	1
12814	12815	12816	1
12814	12815	12819	1
12814	12813	12818	1
12814	12813	12821	1
12816	12823	12824	1
12816	12823	6981	1
12816	12815	12819	1
12816	12817	12818	1
12816	12817	12820	1
12813	12814	12815	1
12815	12816	12817	1
12813	12818	12817	1
12813	12818	12822	1
12817	12818	12822	1
12818	12813	12821	1
12818	12817	12820	1
12826	12825	9432	1
12824	12823	6981	1
13179	13178	13189	1
13177	13178	13189	1
13189	8307	8300	1
13189	8307	8309	1
13179	13180	13187	1
13181	13180	13187	1
13187	8030	8020	1
13187	8030	8032	1
13178	13189	13190	1
13178	13189	8307	1
13178	13179	13180	1
13178	13179	13183	1
13178	13177	13182	1
13178	13177	13185	1
13180	13187	13188	1
13180	13187	8030	1
13180	13179	13183	1
13180	13181	13182	1
13180	13181	13184	1
13177	13178	13179	1
13179	13180	13181	1
13177	13182	13181	1
13177	13182	13186	1
13181	13182	13186	1
13182	13177	13185	1
13182	13181	13184	1
13190	13189	8307	1
13188	13187	8030	1
13375	13376	13383	1
13377	13376	13383	1
13383	8410	8403	1
13383	8410	8412	1
13375	13374	13385	1
13373	13374	13385	1
13385	9009	9002	1
13385	9009	9011	1
13376	13383	13384	1
13376	13383	8410	1
13376	13375	13374	1
13376	13375	13379	1
13376	13377	13378	1
13376	13377	13380	1
13374	13385	13386	1
13374	13385	9009	1
13374	13375	13379	1
13374	13373	13378	1
13374	13373	13381	1
13377	13376	13375	1
13375	13374	13373	1
13377	13378	13373	1
13377	13378	13382	1
13373	13378	13382	1
13378	13377	13380	1
13378	13373	13381	1
13384	13383	8410	1
13386	13385	9009	1
12717	12716	12727	1
12715	12716	12727	1
12727	7316	7306	1
12727	7316	7318	1
12717	12718	12725	1
12719	12718	12725	1
12725	6645	6638	1
12725	6645	6647	1
12716	12727	12728	1
12716	12727	7316	1
12716	12717	12718	1
12716	12717	12721	1
12716	12715	12720	1
12716	12715	12723	1
12718	12725	12726	1
12718	12725	6645	1
12718	12717	12721	1
12718	12719	12720	1
12718	12719	12722	1
12715	12716	12717	1
12717	12718	12719	1
12715	12720	12719	1
12715	12720	12724	1
12719	12720	12724	1
12720	12715	12723	1
12720	12719	12722	1
12728	12727	7316	1
12726	12725	6645	1
1236	1237	1244	1
1238	1237	1244	1
1244	10454	10444	1
1244	10454	10456	1
1236	1235	1246	1
1234	1235	1246	1
1250	1248	1246	1
1249	1248	1246	1
1237	1244	1245	1
1237	1244	10454	1
1237	1236	1235	1
1237	1236	1240	1
1237	1238	1239	1
1237	1238	1241	1
1235	1246	1247	1
1248	1246	1235	1
1235	1236	1240	1
1235	1234	1239	1
1235	1234	1242	1
1238	1237	1236	1
1236	1235	1234	1
1238	1239	1234	1
1238	1239	1243	1
1234	1239	1243	1
1239	1238	1241	1
1239	1234	1242	1
1245	1244	10454	1
1248	1246	1247	1
7263	7262	7273	1
7261	7262	7273	1
7273	7281	7275	1
7273	7281	7282	1
7263	7264	7271	1
7265	7264	7271	1
7271	9661	9655	1
7271	9661	9662	1
7262	7273	7274	1
7262	7273	7281	1
7262	7263	7264	1
7262	7263	7267	1
7262	7261	7266	1
7262	7261	7269	1
7264	7271	7272	1
7264	7271	9661	1
7264	7263	7267	1
7264	7265	7266	1
7264	7265	7268	1
7261	7262	7263	1
7263	7264	7265	1
7261	7266	7265	1
7261	7266	7270	1
7265	7266	7270	1
7266	7261	7269	1
7266	7265	7268	1
7274	7273	7281	1
7272	7271	9661	1
1606	1605	1616	1
1604	1605	1616	1
1587	1593	1616	1
1594	1593	1616	1
1606	1607	1614	1
1608	1607	1614	1
1175	1182	1614	1
1184	1182	1614	1
1605	1616	1617	1
1593	1616	1605	1
1605	1606	1607	1
1605	1606	1610	1
1605	1604	1609	1
1605	1604	1612	1
1607	1614	1615	1
1182	1614	1607	1
1607	1606	1610	1
1607	1608	1609	1
1607	1608	1611	1
1604	1605	1606	1
1606	1607	1608	1
1604	1609	1608	1
1604	1609	1613	1
1608	1609	1613	1
1609	1604	1612	1
1609	1608	1611	1
1593	1616	1617	1
1182	1614	1615	1
508	507	518	1
506	507	518	1
518	5911	5905	1
518	5911	5912	1
508	509	516	1
510	509	516	1
522	520	516	1
521	520	516	1
507	518	519	1
507	518	5911	1
507	508	509	1
507	508	512	1
507	506	511	1
507	506	514	1
509	516	517	1
520	516	509	1
509	508	512	1
509	510	511	1
509	510	513	1
506	507	508	1
508	509	510	1
506	511	510	1
506	511	515	1
510	511	515	1
511	506	514	1
511	510	513	1
519	518	5911	1
520	516	517	1
13053	13052	13063	1
13051	13052	13063	1
13063	8907	8900	1
13063	8907	8909	1
13053	13054	13061	1
13055	13054	13061	1
13061	7636	7629	1
13061	7636	7638	1
13052	13063	13064	1
13052	13063	8907	1
13052	13053	13054	1
13052	13053	13057	1
13052	13051	13056	1
13052	13051	13059	1
13054	13061	13062	1
13054	13061	7636	1
13054	13053	13057	1
13054	13055	13056	1
13054	13055	13058	1
13051	13052	13053	1
13053	13054	13055	1
13051	13056	13055	1
13051	13056	13060	1
13055	13056	13060	1
13056	13051	13059	1
13056	13055	13058	1
13064	13063	8907	1
13062	13061	7636	1
8387	8386	8397	1
8385	8386	8397	1
8397	8405	8399	1
8397	8405	8406	1
8387	8388	8395	1
8389	8388	8395	1
8395	10176	10166	1
8395	10176	10178	1
8386	8397	8398	1
8386	8397	8405	1
8386	8387	8388	1
8386	8387	8391	1
8386	8385	8390	1
8386	8385	8393	1
8388	8395	8396	1
8388	8395	10176	1
8388	8387	8391	1
8388	8389	8390	1
8388	8389	8392	1
8385	8386	8387	1
8387	8388	8389	1
8385	8390	8389	1
8385	8390	8394	1
8389	8390	8394	1
8390	8385	8393	1
8390	8389	8392	1
8398	8397	8405	1
8396	8395	10176	1
4742	4743	4750	1
4744	4743	4750	1
4750	7126	7119	1
4750	7126	7128	1
4742	4741	4752	1
4740	4741	4752	1
4752	4760	4754	1
4752	4760	4761	1
4743	4750	4751	1
4743	4750	7126	1
4741	4742	4743	1
4743	4742	4746	1
4743	4744	4745	1
4743	4744	4747	1
4741	4752	4753	1
4741	4752	4760	1
4741	4742	4746	1
4741	4740	4745	1
4741	4740	4748	1
4742	4743	4744	1
4740	4741	4742	1
4740	4745	4744	1
4744	4745	4749	1
4740	4745	4749	1
4745	4744	4747	1
4745	4740	4748	1
4751	4750	7126	1
4753	4752	4760	1
3722	3723	3730	1
3724	3723	3730	1
3730	11156	11149	1
3730	11156	11158	1
3722	3721	3732	1
3720	3721	3732	1
3723	3730	3731	1
3723	3730	11156	1
3721	3722	3723	1
3723	3722	3726	1
3723	3724	3725	1
3723	3724	3727	1
3721	3732	3733	1
3721	3732	3734	1
3721	3722	3726	1
3721	3720	3725	1
3721	3720	3728	1
3722	3723	3724	1
3720	3721	3722	1
3720	3725	3724	1
3724	3725	3729	1
3720	3725	3729	1
3725	3724	3727	1
3725	3720	3728	1
3731	3730	11156	1
3733	3732	3734	1
12297	12296	12307	1
12295	12296	12307	1
12307	10141	10135	1
12307	10141	10142	1
12297	12298	12305	1
12299	12298	12305	1
12305	5800	5790	1
12305	5800	5802	1
12296	12307	12308	1
12296	12307	10141	1
12296	12297	12298	1
12296	12297	12301	1
12296	12295	12300	1
12296	12295	12303	1
12298	12305	12306	1
12298	12305	5800	1
12298	12297	12301	1
12298	12299	12300	1
12298	12299	12302	1
12295	12296	12297	1
12297	12298	12299	1
12295	12300	12299	1
12295	12300	12304	1
12299	12300	12304	1
12300	12295	12303	1
12300	12299	12302	1
12308	12307	10141	1
12306	12305	5800	1
5251	5250	5261	1
5249	5250	5261	1
5261	5269	5263	1
5261	5269	5270	1
5251	5252	5259	1
5253	5252	5259	1
5259	8258	8252	1
5259	8258	8259	1
5250	5261	5262	1
5250	5261	5269	1
5250	5251	5252	1
5250	5251	5255	1
5250	5249	5254	1
5250	5249	5257	1
5252	5259	5260	1
5252	5259	8258	1
5252	5251	5255	1
5252	5253	5254	1
5252	5253	5256	1
5249	5250	5251	1
5251	5252	5253	1
5249	5254	5253	1
5249	5254	5258	1
5253	5254	5258	1
5254	5249	5257	1
5254	5253	5256	1
5262	5261	5269	1
5260	5259	8258	1
7715	7714	7725	1
7713	7714	7725	1
7725	7733	7727	1
7725	7733	7734	1
7715	7716	7723	1
7717	7716	7723	1
7723	4446	4439	1
7723	4446	4448	1
7714	7725	7726	1
7714	7725	7733	1
7714	7715	7716	1
7714	7715	7719	1
7714	7713	7718	1
7714	7713	7721	1
7716	7723	7724	1
7716	7723	4446	1
7716	7715	7719	1
7716	7717	7718	1
7716	7717	7720	1
7713	7714	7715	1
7715	7716	7717	1
7713	7718	7717	1
7713	7718	7722	1
7717	7718	7722	1
7718	7713	7721	1
7718	7717	7720	1
7726	7725	7733	1
7724	7723	4446	1
9321	9322	9329	1
9323	9322	9329	1
448	455	9329	1
457	455	9329	1
9321	9320	9331	1
9319	9320	9331	1
9331	9339	9333	1
9331	9339	9340	1
9322	9329	9330	1
455	9329	9322	1
9320	9321	9322	1
9322	9321	9325	1
9322	9323	9324	1
9322	9323	9326	1
9320	9331	9332	1
9320	9331	9339	1
9320	9321	9325	1
9320	9319	9324	1
9320	9319	9327	1
9321	9322	9323	1
9319	9320	9321	1
9319	9324	9323	1
9323	9324	9328	1
9319	9324	9328	1
9324	9323	9326	1
9324	9319	9327	1
455	9329	9330	1
9332	9331	9339	1
2100	2099	2110	1
2098	2099	2110	1
2081	2087	2110	1
2088	2087	2110	1
2100	2101	2108	1
2102	2101	2108	1
2108	9063	9057	1
2108	9063	9064	1
2099	2110	2111	1
2087	2110	2099	1
2099	2100	2101	1
2099	2100	2104	1
2099	2098	2103	1
2099	2098	2106	1
2101	2108	2109	1
2101	2108	9063	1
2101	2100	2104	1
2101	2102	2103	1
2101	2102	2105	1
2098	2099	2100	1
2100	2101	2102	1
2098	2103	2102	1
2098	2103	2107	1
2102	2103	2107	1
2103	2098	2106	1
2103	2102	2105	1
2087	2110	2111	1
2109	2108	9063	1
10839	10838	10849	1
10837	10838	10849	1
10849	10857	10851	1
10849	10857	10858	1
10839	10840	10847	1
10841	10840	10847	1
10847	7681	7671	1
10847	7681	7683	1
10838	10849	10850	1
10838	10849	10857	1
10838	10839	10840	1
10838	10839	10843	1
10838	10837	10842	1
10838	10837	10845	1
10840	10847	10848	1
10840	10847	7681	1
10840	10839	10843	1
10840	10841	10842	1
10840	10841	10844	1
10837	10838	10839	1
10839	10840	10841	1
10837	10842	10841	1
10837	10842	10846	1
10841	10842	10846	1
10842	10837	10845	1
10842	10841	10844	1
10850	10849	10857	1
10848	10847	7681	1
13137	13136	13147	1
13135	13136	13147	1
2473	2480	13147	1
2482	2480	13147	1
13137	13138	13145	1
13139	13138	13145	1
13145	7912	7905	1
13145	7912	7914	1
13136	13147	13148	1
2480	13147	13136	1
13136	13137	13138	1
13136	13137	13141	1
13136	13135	13140	1
13136	13135	13143	1
13138	13145	13146	1
13138	13145	7912	1
13138	13137	13141	1
13138	13139	13140	1
13138	13139	13142	1
13135	13136	13137	1
13137	13138	13139	1
13135	13140	13139	1
13135	13140	13144	1
13139	13140	13144	1
13140	13135	13143	1
13140	13139	13142	1
2480	13147	13148	1
13146	13145	7912	1
13627	13628	13635	1
13629	13628	13635	1
13635	9900	9890	1
13635	9900	9902	1
13627	13626	13637	1
13625	13626	13637	1
973	980	13637	1
982	980	13637	1
13628	13635	13636	1
13628	13635	9900	1
13626	13627	13628	1
13628	13627	13631	1
13628	13629	13630	1
13628	13629	13632	1
13626	13637	13638	1
980	13637	13626	1
13626	13627	13631	1
13626	13625	13630	1
13626	13625	13633	1
13627	13628	13629	1
13625	13626	13627	1
13625	13630	13629	1
13629	13630	13634	1
13625	13630	13634	1
13630	13629	13632	1
13630	13625	13633	1
13636	13635	9900	1
980	13637	13638	1
11625	11624	11635	1
11623	11624	11635	1
11635	4649	4642	1
11635	4649	4651	1
11625	11626	11633	1
11627	11626	11633	1
11633	11010	11000	1
11633	11010	11012	1
11624	11635	11636	1
11624	11635	4649	1
11624	11625	11626	1
11624	11625	11629	1
11624	11623	11628	1
11624	11623	11631	1
11626	11633	11634	1
11626	11633	11010	1
11626	11625	11629	1
11626	11627	11628	1
11626	11627	11630	1
11623	11624	11625	1
11625	11626	11627	1
11623	11628	11627	1
11623	11628	11632	1
11627	11628	11632	1
11628	11623	11631	1
11628	11627	11630	1
11636	11635	4649	1
11634	11633	11010	1
2364	2365	2372	1
2366	2365	2372	1
2372	5027	5020	1
2372	5027	5029	1
2364	2363	2374	1
2362	2363	2374	1
2345	2351	2374	1
2352	2351	2374	1
2365	2372	2373	1
2365	2372	5027	1
2365	2364	2363	1
2365	2364	2368	1
2365	2366	2367	1
2365	2366	2369	1
2363	2374	2375	1
2351	2374	2363	1
2363	2364	2368	1
2363	2362	2367	1
2363	2362	2370	1
2366	2365	2364	1
2364	2363	2362	1
2366	2367	2362	1
2366	2367	2371	1
2362	2367	2371	1
2367	2366	2369	1
2367	2362	2370	1
2373	2372	5027	1
2351	2374	2375	1
3827	3826	3837	1
3825	3826	3837	1
3837	3845	3839	1
3837	3845	3846	1
3827	3828	3835	1
3829	3828	3835	1
3835	10755	10749	1
3835	10755	10756	1
3826	3837	3838	1
3826	3837	3845	1
3826	3827	3828	1
3826	3827	3831	1
3826	3825	3830	1
3826	3825	3833	1
3828	3835	3836	1
3828	3835	10755	1
3828	3827	3831	1
3828	3829	3830	1
3828	3829	3832	1
3825	3826	3827	1
3827	3828	3829	1
3825	3830	3829	1
3825	3830	3834	1
3829	3830	3834	1
3830	3825	3833	1
3830	3829	3832	1
3838	3837	3845	1
3836	3835	10755	1
13459	13458	13469	1
13457	13458	13469	1
13469	8834	8827	1
13469	8834	8836	1
13459	13460	13467	1
13461	13460	13467	1
1268	1275	13467	1
1277	1275	13467	1
13458	13469	13470	1
13458	13469	8834	1
13458	13459	13460	1
13458	13459	13463	1
13458	13457	13462	1
13458	13457	13465	1
13460	13467	13468	1
1275	13467	13460	1
13460	13459	13463	1
13460	13461	13462	1
13460	13461	13464	1
13457	13458	13459	1
13459	13460	13461	1
13457	13462	13461	1
13457	13462	13466	1
13461	13462	13466	1
13462	13457	13465	1
13462	13461	13464	1
13470	13469	8834	1
1275	13467	13468	1
11821	11820	11831	1
11819	11820	11831	1
11831	4926	4916	1
11831	4926	4928	1
11821	11822	11829	1
11823	11822	11829	1
11829	11054	11044	1
11829	11054	11056	1
11820	11831	11832	1
11820	11831	4926	1
11820	11821	11822	1
11820	11821	11825	1
11820	11819	11824	1
11820	11819	11827	1
11822	11829	11830	1
11822	11829	11054	1
11822	11821	11825	1
11822	11823	11824	1
11822	11823	11826	1
11819	11820	11821	1
11821	11822	11823	1
11819	11824	11823	1
11819	11824	11828	1
11823	11824	11828	1
11824	11819	11827	1
11824	11823	11826	1
11832	11831	4926	1
11830	11829	11054	1
11765	11764	11775	1
11763	11764	11775	1
11775	4853	4843	1
11775	4853	4855	1
11765	11766	11773	1
11767	11766	11773	1
11773	10277	10270	1
11773	10277	10279	1
11764	11775	11776	1
11764	11775	4853	1
11764	11765	11766	1
11764	11765	11769	1
11764	11763	11768	1
11764	11763	11771	1
11766	11773	11774	1
11766	11773	10277	1
11766	11765	11769	1
11766	11767	11768	1
11766	11767	11770	1
11763	11764	11765	1
11765	11766	11767	1
11763	11768	11767	1
11763	11768	11772	1
11767	11768	11772	1
11768	11763	11771	1
11768	11767	11770	1
11776	11775	4853	1
11774	11773	10277	1
957	956	967	1
955	956	967	1
938	944	967	1
945	944	967	1
957	958	965	1
959	958	965	1
965	5941	5935	1
965	5941	5942	1
956	967	968	1
944	967	956	1
956	957	958	1
956	957	961	1
956	955	960	1
956	955	963	1
958	965	966	1
958	965	5941	1
958	957	961	1
958	959	960	1
958	959	962	1
955	956	957	1
957	958	959	1
955	960	959	1
955	960	964	1
959	960	964	1
960	955	963	1
960	959	962	1
944	967	968	1
966	965	5941	1
6724	6723	6734	1
6722	6723	6734	1
6734	6742	6736	1
6734	6742	6743	1
6724	6725	6732	1
6726	6725	6732	1
1127	1134	6732	1
1136	1134	6732	1
6723	6734	6735	1
6723	6734	6742	1
6723	6724	6725	1
6723	6724	6728	1
6723	6722	6727	1
6723	6722	6730	1
6725	6732	6733	1
1134	6732	6725	1
6725	6724	6728	1
6725	6726	6727	1
6725	6726	6729	1
6722	6723	6724	1
6724	6725	6726	1
6722	6727	6726	1
6722	6727	6731	1
6726	6727	6731	1
6727	6722	6730	1
6727	6726	6729	1
6735	6734	6742	1
1134	6732	6733	1
6651	6650	6661	1
6649	6650	6661	1
6661	5188	5178	1
6661	5188	5190	1
6651	6652	6659	1
6653	6652	6659	1
6659	6669	6663	1
6659	6669	6670	1
6650	6661	6662	1
6650	6661	5188	1
6650	6651	6652	1
6650	6651	6655	1
6650	6649	6654	1
6650	6649	6657	1
6652	6659	6660	1
6652	6659	6669	1
6652	6651	6655	1
6652	6653	6654	1
6652	6653	6656	1
6649	6650	6651	1
6651	6652	6653	1
6649	6654	6653	1
6649	6654	6658	1
6653	6654	6658	1
6654	6649	6657	1
6654	6653	6656	1
6662	6661	5188	1
6660	6659	6669	1
12423	12422	12433	1
12421	12422	12433	1
1516	1518	12433	1
1519	1518	12433	1
12423	12424	12431	1
12425	12424	12431	1
12431	6004	5997	1
12431	6004	6006	1
12422	12433	12434	1
1518	12433	12422	1
12422	12423	12424	1
12422	12423	12427	1
12422	12421	12426	1
12422	12421	12429	1
12424	12431	12432	1
12424	12431	6004	1
12424	12423	12427	1
12424	12425	12426	1
12424	12425	12428	1
12421	12422	12423	1
12423	12424	12425	1
12421	12426	12425	1
12421	12426	12430	1
12425	12426	12430	1
12426	12421	12429	1
12426	12425	12428	1
1518	12433	12434	1
12432	12431	6004	1
3272	3271	3282	1
3270	3271	3282	1
3272	3273	3280	1
3274	3273	3280	1
3280	8902	8896	1
3280	8902	8903	1
3271	3282	3284	1
3271	3282	3283	1
3271	3272	3273	1
3271	3272	3276	1
3271	3270	3275	1
3271	3270	3278	1
3273	3280	3281	1
3273	3280	8902	1
3273	3272	3276	1
3273	3274	3275	1
3273	3274	3277	1
3270	3271	3272	1
3272	3273	3274	1
3270	3275	3274	1
3270	3275	3279	1
3274	3275	3279	1
3275	3270	3278	1
3275	3274	3277	1
3284	3282	3283	1
3281	3280	8902	1
741	740	751	1
739	740	751	1
722	728	751	1
729	728	751	1
741	742	749	1
743	742	749	1
749	4993	4987	1
749	4993	4994	1
740	751	752	1
728	751	740	1
740	741	742	1
740	741	745	1
740	739	744	1
740	739	747	1
742	749	750	1
742	749	4993	1
742	741	745	1
742	743	744	1
742	743	746	1
739	740	741	1
741	742	743	1
739	744	743	1
739	744	748	1
743	744	748	1
744	739	747	1
744	743	746	1
728	751	752	1
750	749	4993	1
8840	8839	8850	1
8838	8839	8850	1
8850	9943	9936	1
8850	9943	9945	1
8840	8841	8848	1
8842	8841	8848	1
8848	8864	8854	1
8848	8864	8866	1
8839	8850	8851	1
8839	8850	9943	1
8839	8840	8841	1
8839	8840	8844	1
8839	8838	8843	1
8839	8838	8846	1
8841	8848	8849	1
8841	8848	8864	1
8841	8840	8844	1
8841	8842	8843	1
8841	8842	8845	1
8838	8839	8840	1
8840	8841	8842	1
8838	8843	8842	1
8838	8843	8847	1
8842	8843	8847	1
8843	8838	8846	1
8843	8842	8845	1
8851	8850	9943	1
8849	8848	8864	1
12563	12562	12573	1
12561	12562	12573	1
12573	8088	8078	1
12573	8088	8090	1
12563	12564	12571	1
12565	12564	12571	1
12571	6267	6257	1
12571	6267	6269	1
12562	12573	12574	1
12562	12573	8088	1
12562	12563	12564	1
12562	12563	12567	1
12562	12561	12566	1
12562	12561	12569	1
12564	12571	12572	1
12564	12571	6267	1
12564	12563	12567	1
12564	12565	12566	1
12564	12565	12568	1
12561	12562	12563	1
12563	12564	12565	1
12561	12566	12565	1
12561	12566	12570	1
12565	12566	12570	1
12566	12561	12569	1
12566	12565	12568	1
12574	12573	8088	1
12572	12571	6267	1
7511	7510	7521	1
7509	7510	7521	1
7521	9724	9717	1
7521	9724	9726	1
7511	7512	7519	1
7513	7512	7519	1
7519	7529	7523	1
7519	7529	7530	1
7510	7521	7522	1
7510	7521	9724	1
7510	7511	7512	1
7510	7511	7515	1
7510	7509	7514	1
7510	7509	7517	1
7512	7519	7520	1
7512	7519	7529	1
7512	7511	7515	1
7512	7513	7514	1
7512	7513	7516	1
7509	7510	7511	1
7511	7512	7513	1
7509	7514	7513	1
7509	7514	7518	1
7513	7514	7518	1
7514	7509	7517	1
7514	7513	7516	1
7522	7521	9724	1
7520	7519	7529	1
7918	7917	7928	1
7916	7917	7928	1
7928	7936	7930	1
7928	7936	7937	1
7918	7919	7926	1
7920	7919	7926	1
7926	7680	7673	1
7926	7680	7682	1
7917	7928	7929	1
7917	7928	7936	1
7917	7918	7919	1
7917	7918	7922	1
7917	7916	7921	1
7917	7916	7924	1
7919	7926	7927	1
7919	7926	7680	1
7919	7918	7922	1
7919	7920	7921	1
7919	7920	7923	1
7916	7917	7918	1
7918	7919	7920	1
7916	7921	7920	1
7916	7921	7925	1
7920	7921	7925	1
7921	7916	7924	1
7921	7920	7923	1
7929	7928	7936	1
7927	7926	7680	1
12773	12772	12783	1
12771	12772	12783	1
12783	10379	10372	1
12783	10379	10381	1
12773	12774	12781	1
12775	12774	12781	1
12781	6748	6738	1
12781	6748	6750	1
12772	12783	12784	1
12772	12783	10379	1
12772	12773	12774	1
12772	12773	12777	1
12772	12771	12776	1
12772	12771	12779	1
12774	12781	12782	1
12774	12781	6748	1
12774	12773	12777	1
12774	12775	12776	1
12774	12775	12778	1
12771	12772	12773	1
12773	12774	12775	1
12771	12776	12775	1
12771	12776	12780	1
12775	12776	12780	1
12776	12771	12779	1
12776	12775	12778	1
12784	12783	10379	1
12782	12781	6748	1
149	148	159	1
147	148	159	1
136	138	159	1
139	138	159	1
149	150	157	1
151	150	157	1
157	6791	6784	1
157	6791	6793	1
148	159	160	1
138	159	148	1
148	149	150	1
148	149	153	1
148	147	152	1
148	147	155	1
150	157	158	1
150	157	6791	1
150	149	153	1
150	151	152	1
150	151	154	1
147	148	149	1
149	150	151	1
147	152	151	1
147	152	156	1
151	152	156	1
152	147	155	1
152	151	154	1
138	159	160	1
158	157	6791	1
11555	11554	11565	1
11553	11554	11565	1
11565	4475	4468	1
11565	4475	4477	1
11555	11556	11563	1
11557	11556	11563	1
386	393	11563	1
395	393	11563	1
11554	11565	11566	1
11554	11565	4475	1
11554	11555	11556	1
11554	11555	11559	1
11554	11553	11558	1
11554	11553	11561	1
11556	11563	11564	1
393	11563	11556	1
11556	11555	11559	1
11556	11557	11558	1
11556	11557	11560	1
11553	11554	11555	1
11555	11556	11557	1
11553	11558	11557	1
11553	11558	11562	1
11557	11558	11562	1
11558	11553	11561	1
11558	11557	11560	1
11566	11565	4475	1
393	11563	11564	1
1698	1697	1708	1
1696	1697	1708	1
1708	7884	7874	1
1708	7884	7886	1
1698	1699	1706	1
1700	1699	1706	1
1679	1685	1706	1
1686	1685	1706	1
1697	1708	1709	1
1697	1708	7884	1
1697	1698	1699	1
1697	1698	1702	1
1697	1696	1701	1
1697	1696	1704	1
1699	1706	1707	1
1685	1706	1699	1
1699	1698	1702	1
1699	1700	1701	1
1699	1700	1703	1
1696	1697	1698	1
1698	1699	1700	1
1696	1701	1700	1
1696	1701	1705	1
1700	1701	1705	1
1701	1696	1704	1
1701	1700	1703	1
1709	1708	7884	1
1685	1706	1707	1
2333	2332	2343	1
2331	2332	2343	1
2343	6786	6780	1
2343	6786	6787	1
2333	2334	2341	1
2335	2334	2341	1
2314	2320	2341	1
2321	2320	2341	1
2332	2343	2344	1
2332	2343	6786	1
2332	2333	2334	1
2332	2333	2337	1
2332	2331	2336	1
2332	2331	2339	1
2334	2341	2342	1
2320	2341	2334	1
2334	2333	2337	1
2334	2335	2336	1
2334	2335	2338	1
2331	2332	2333	1
2333	2334	2335	1
2331	2336	2335	1
2331	2336	2340	1
2335	2336	2340	1
2336	2331	2339	1
2336	2335	2338	1
2344	2343	6786	1
2320	2341	2342	1
12843	12842	12853	1
12841	12842	12853	1
12853	8776	8769	1
12853	8776	8778	1
12843	12844	12851	1
12845	12844	12851	1
12851	7040	7030	1
12851	7040	7042	1
12842	12853	12854	1
12842	12853	8776	1
12842	12843	12844	1
12842	12843	12847	1
12842	12841	12846	1
12842	12841	12849	1
12844	12851	12852	1
12844	12851	7040	1
12844	12843	12847	1
12844	12845	12846	1
12844	12845	12848	1
12841	12842	12843	1
12843	12844	12845	1
12841	12846	12845	1
12841	12846	12850	1
12845	12846	12850	1
12846	12841	12849	1
12846	12845	12848	1
12854	12853	8776	1
12852	12851	7040	1
3632	3631	3642	1
3630	3631	3642	1
3632	3633	3640	1
3634	3633	3640	1
3640	10805	10795	1
3640	10805	10807	1
3631	3642	3643	1
3631	3642	3644	1
3631	3632	3633	1
3631	3632	3636	1
3631	3630	3635	1
3631	3630	3638	1
3633	3640	3641	1
3633	3640	10805	1
3633	3632	3636	1
3633	3634	3635	1
3633	3634	3637	1
3630	3631	3632	1
3632	3633	3634	1
3630	3635	3634	1
3630	3635	3639	1
3634	3635	3639	1
3635	3630	3638	1
3635	3634	3637	1
3643	3642	3644	1
3641	3640	10805	1
5674	5675	5682	1
5676	5675	5682	1
1573	1571	5682	1
1572	1571	5682	1
5674	5673	5684	1
5672	5673	5684	1
5684	5698	5688	1
5684	5698	5700	1
5675	5682	5683	1
1571	5682	5675	1
5675	5674	5673	1
5675	5674	5678	1
5675	5676	5677	1
5675	5676	5679	1
5673	5684	5685	1
5673	5684	5698	1
5673	5674	5678	1
5673	5672	5677	1
5673	5672	5680	1
5676	5675	5674	1
5674	5673	5672	1
5676	5677	5672	1
5676	5677	5681	1
5672	5677	5681	1
5677	5676	5679	1
5677	5672	5680	1
1571	5682	5683	1
5685	5684	5698	1
13025	13024	13035	1
13023	13024	13035	1
13035	7602	7596	1
13035	7602	7603	1
13025	13026	13033	1
13027	13026	13033	1
13033	9622	9612	1
13033	9622	9624	1
13024	13035	13036	1
13024	13035	7602	1
13024	13025	13026	1
13024	13025	13029	1
13024	13023	13028	1
13024	13023	13031	1
13026	13033	13034	1
13026	13033	9622	1
13026	13025	13029	1
13026	13027	13028	1
13026	13027	13030	1
13023	13024	13025	1
13025	13026	13027	1
13023	13028	13027	1
13023	13028	13032	1
13027	13028	13032	1
13028	13023	13031	1
13028	13027	13030	1
13036	13035	7602	1
13034	13033	9622	1
5135	5134	5145	1
5133	5134	5145	1
5145	5153	5147	1
5145	5153	5154	1
5135	5136	5143	1
5137	5136	5143	1
5143	3923	3916	1
5143	3923	3925	1
5134	5145	5146	1
5134	5145	5153	1
5134	5135	5136	1
5134	5135	5139	1
5134	5133	5138	1
5134	5133	5141	1
5136	5143	5144	1
5136	5143	3923	1
5136	5135	5139	1
5136	5137	5138	1
5136	5137	5140	1
5133	5134	5135	1
5135	5136	5137	1
5133	5138	5137	1
5133	5138	5142	1
5137	5138	5142	1
5138	5133	5141	1
5138	5137	5140	1
5146	5145	5153	1
5144	5143	3923	1
3987	3986	3997	1
3985	3986	3997	1
3997	10761	10751	1
3997	10761	10763	1
3987	3988	3995	1
3989	3988	3995	1
3995	4005	3999	1
3995	4005	4006	1
3986	3997	3998	1
3986	3997	10761	1
3986	3987	3988	1
3986	3987	3991	1
3986	3985	3990	1
3986	3985	3993	1
3988	3995	3996	1
3988	3995	4005	1
3988	3987	3991	1
3988	3989	3990	1
3988	3989	3992	1
3985	3986	3987	1
3987	3988	3989	1
3985	3990	3989	1
3985	3990	3994	1
3989	3990	3994	1
3990	3985	3993	1
3990	3989	3992	1
3998	3997	10761	1
3996	3995	4005	1
12213	12212	12223	1
12211	12212	12223	1
12223	5697	5690	1
12223	5697	5699	1
12213	12214	12221	1
12215	12214	12221	1
819	826	12221	1
828	826	12221	1
12212	12223	12224	1
12212	12223	5697	1
12212	12213	12214	1
12212	12213	12217	1
12212	12211	12216	1
12212	12211	12219	1
12214	12221	12222	1
826	12221	12214	1
12214	12213	12217	1
12214	12215	12216	1
12214	12215	12218	1
12211	12212	12213	1
12213	12214	12215	1
12211	12216	12215	1
12211	12216	12220	1
12215	12216	12220	1
12216	12211	12219	1
12216	12215	12218	1
12224	12223	5697	1
826	12221	12222	1
10094	10093	10104	1
10092	10093	10104	1
10104	10112	10106	1
10104	10112	10113	1
10094	10095	10102	1
10096	10095	10102	1
10102	7214	7204	1
10102	7214	7216	1
10093	10104	10105	1
10093	10104	10112	1
10093	10094	10095	1
10093	10094	10098	1
10093	10092	10097	1
10093	10092	10100	1
10095	10102	10103	1
10095	10102	7214	1
10095	10094	10098	1
10095	10096	10097	1
10095	10096	10099	1
10092	10093	10094	1
10094	10095	10096	1
10092	10097	10096	1
10092	10097	10101	1
10096	10097	10101	1
10097	10092	10100	1
10097	10096	10099	1
10105	10104	10112	1
10103	10102	7214	1
12647	12646	12657	1
12645	12646	12657	1
12657	6428	6418	1
12657	6428	6430	1
12647	12648	12655	1
12649	12648	12655	1
942	949	12655	1
951	949	12655	1
12646	12657	12658	1
12646	12657	6428	1
12646	12647	12648	1
12646	12647	12651	1
12646	12645	12650	1
12646	12645	12653	1
12648	12655	12656	1
949	12655	12648	1
12648	12647	12651	1
12648	12649	12650	1
12648	12649	12652	1
12645	12646	12647	1
12647	12648	12649	1
12645	12650	12649	1
12645	12650	12654	1
12649	12650	12654	1
12650	12645	12653	1
12650	12649	12652	1
12658	12657	6428	1
949	12655	12656	1
9263	9262	9273	1
9261	9262	9273	1
9273	10175	10168	1
9273	10175	10177	1
9263	9264	9271	1
9265	9264	9271	1
9271	9286	9279	1
9271	9286	9288	1
9262	9273	9274	1
9262	9273	10175	1
9262	9263	9264	1
9262	9263	9267	1
9262	9261	9266	1
9262	9261	9269	1
9264	9271	9272	1
9264	9271	9286	1
9264	9263	9267	1
9264	9265	9266	1
9264	9265	9268	1
9261	9262	9263	1
9263	9264	9265	1
9261	9266	9265	1
9261	9266	9270	1
9265	9266	9270	1
9266	9261	9269	1
9266	9265	9268	1
9274	9273	10175	1
9272	9271	9286	1
8064	8063	8074	1
8062	8063	8074	1
8074	5348	5338	1
8074	5348	5350	1
8064	8065	8072	1
8066	8065	8072	1
8072	8082	8076	1
8072	8082	8083	1
8063	8074	8075	1
8063	8074	5348	1
8063	8064	8065	1
8063	8064	8068	1
8063	8062	8067	1
8063	8062	8070	1
8065	8072	8073	1
8065	8072	8082	1
8065	8064	8068	1
8065	8066	8067	1
8065	8066	8069	1
8062	8063	8064	1
8064	8065	8066	1
8062	8067	8066	1
8062	8067	8071	1
8066	8067	8071	1
8067	8062	8070	1
8067	8066	8069	1
8075	8074	5348	1
8073	8072	8082	1
10152	10151	10162	1
10150	10151	10162	1
10162	10170	10164	1
10162	10170	10171	1
10152	10153	10160	1
10154	10153	10160	1
10160	4852	4845	1
10160	4852	4854	1
10151	10162	10163	1
10151	10162	10170	1
10151	10152	10153	1
10151	10152	10156	1
10151	10150	10155	1
10151	10150	10158	1
10153	10160	10161	1
10153	10160	4852	1
10153	10152	10156	1
10153	10154	10155	1
10153	10154	10157	1
10150	10151	10152	1
10152	10153	10154	1
10150	10155	10154	1
10150	10155	10159	1
10154	10155	10159	1
10155	10150	10158	1
10155	10154	10157	1
10163	10162	10170	1
10161	10160	4852	1
9949	9948	9959	1
9947	9948	9959	1
1854	1856	9959	1
1857	1856	9959	1
9949	9950	9957	1
9951	9950	9957	1
9957	9967	9961	1
9957	9967	9968	1
9948	9959	9960	1
1856	9959	9948	1
9948	9949	9950	1
9948	9949	9953	1
9948	9947	9952	1
9948	9947	9955	1
9950	9957	9958	1
9950	9957	9967	1
9950	9949	9953	1
9950	9951	9952	1
9950	9951	9954	1
9947	9948	9949	1
9949	9950	9951	1
9947	9952	9951	1
9947	9952	9956	1
9951	9952	9956	1
9952	9947	9955	1
9952	9951	9954	1
1856	9959	9960	1
9958	9957	9967	1
11415	11414	11425	1
11413	11414	11425	1
11425	4243	4233	1
11425	4243	4245	1
11415	11416	11423	1
11417	11416	11423	1
11423	7652	7642	1
11423	7652	7654	1
11414	11425	11426	1
11414	11425	4243	1
11414	11415	11416	1
11414	11415	11419	1
11414	11413	11418	1
11414	11413	11421	1
11416	11423	11424	1
11416	11423	7652	1
11416	11415	11419	1
11416	11417	11418	1
11416	11417	11420	1
11413	11414	11415	1
11415	11416	11417	1
11413	11418	11417	1
11413	11418	11422	1
11417	11418	11422	1
11418	11413	11421	1
11418	11417	11420	1
11426	11425	4243	1
11424	11423	7652	1
13753	13752	13763	1
13751	13752	13763	1
1745	1752	13763	1
1754	1752	13763	1
13753	13754	13761	1
13755	13754	13761	1
13761	11112	11105	1
13761	11112	11114	1
13752	13763	13764	1
1752	13763	13752	1
13752	13753	13754	1
13752	13753	13757	1
13752	13751	13756	1
13752	13751	13759	1
13754	13761	13762	1
13754	13761	11112	1
13754	13753	13757	1
13754	13755	13756	1
13754	13755	13758	1
13751	13752	13753	1
13753	13754	13755	1
13751	13756	13755	1
13751	13756	13760	1
13755	13756	13760	1
13756	13751	13759	1
13756	13755	13758	1
1752	13763	13764	1
13762	13761	11112	1
2897	2898	2905	1
2899	2898	2905	1
2905	5844	5834	1
2905	5844	5846	1
2897	2896	2907	1
2895	2896	2907	1
2898	2905	2906	1
2898	2905	5844	1
2896	2897	2898	1
2898	2897	2901	1
2898	2899	2900	1
2898	2899	2902	1
2896	2907	2908	1
2896	2907	2909	1
2896	2897	2901	1
2896	2895	2900	1
2896	2895	2903	1
2897	2898	2899	1
2895	2896	2897	1
2895	2900	2899	1
2899	2900	2904	1
2895	2900	2904	1
2900	2899	2902	1
2900	2895	2903	1
2906	2905	5844	1
2908	2907	2909	1
245	244	255	1
243	244	255	1
232	234	255	1
235	234	255	1
245	246	253	1
247	246	253	1
253	8771	8765	1
253	8771	8772	1
244	255	256	1
234	255	244	1
244	245	246	1
244	245	249	1
244	243	248	1
244	243	251	1
246	253	254	1
246	253	8771	1
246	245	249	1
246	247	248	1
246	247	250	1
243	244	245	1
245	246	247	1
243	248	247	1
243	248	252	1
247	248	252	1
248	243	251	1
248	247	250	1
234	255	256	1
254	253	8771	1
13067	13066	13077	1
13065	13066	13077	1
13077	10730	10723	1
13077	10730	10732	1
13067	13068	13075	1
13069	13068	13075	1
13075	7651	7644	1
13075	7651	7653	1
13066	13077	13078	1
13066	13077	10730	1
13066	13067	13068	1
13066	13067	13071	1
13066	13065	13070	1
13066	13065	13073	1
13068	13075	13076	1
13068	13075	7651	1
13068	13067	13071	1
13068	13069	13070	1
13068	13069	13072	1
13065	13066	13067	1
13067	13068	13069	1
13065	13070	13069	1
13065	13070	13074	1
13069	13070	13074	1
13070	13065	13073	1
13070	13069	13072	1
13078	13077	10730	1
13076	13075	7651	1
12885	12884	12895	1
12883	12884	12895	1
12895	7179	7173	1
12895	7179	7180	1
12885	12886	12893	1
12887	12886	12893	1
12893	8805	8798	1
12893	8805	8807	1
12884	12895	12896	1
12884	12895	7179	1
12884	12885	12886	1
12884	12885	12889	1
12884	12883	12888	1
12884	12883	12891	1
12886	12893	12894	1
12886	12893	8805	1
12886	12885	12889	1
12886	12887	12888	1
12886	12887	12890	1
12883	12884	12885	1
12885	12886	12887	1
12883	12888	12887	1
12883	12888	12892	1
12887	12888	12892	1
12888	12883	12891	1
12888	12887	12890	1
12896	12895	7179	1
12894	12893	8805	1
13333	13332	13343	1
13331	13332	13343	1
695	702	13343	1
704	702	13343	1
13333	13334	13341	1
13335	13334	13341	1
13341	8308	8298	1
13341	8308	8310	1
13332	13343	13344	1
702	13343	13332	1
13332	13333	13334	1
13332	13333	13337	1
13332	13331	13336	1
13332	13331	13339	1
13334	13341	13342	1
13334	13341	8308	1
13334	13333	13337	1
13334	13335	13336	1
13334	13335	13338	1
13331	13332	13333	1
13333	13334	13335	1
13331	13336	13335	1
13331	13336	13340	1
13335	13336	13340	1
13336	13331	13339	1
13336	13335	13338	1
702	13343	13344	1
13342	13341	8308	1
2426	2425	2436	1
2424	2425	2436	1
2407	2413	2436	1
2414	2413	2436	1
2426	2427	2434	1
2428	2427	2434	1
2434	8199	8193	1
2434	8199	8200	1
2425	2436	2437	1
2413	2436	2425	1
2425	2426	2427	1
2425	2426	2430	1
2425	2424	2429	1
2425	2424	2432	1
2427	2434	2435	1
2427	2434	8199	1
2427	2426	2430	1
2427	2428	2429	1
2427	2428	2431	1
2424	2425	2426	1
2426	2427	2428	1
2424	2429	2428	1
2424	2429	2433	1
2428	2429	2433	1
2429	2424	2432	1
2429	2428	2431	1
2413	2436	2437	1
2435	2434	8199	1
11863	11862	11873	1
11861	11862	11873	1
1254	1256	11873	1
1257	1256	11873	1
11863	11864	11871	1
11865	11864	11871	1
11871	5028	5018	1
11871	5028	5030	1
11862	11873	11874	1
1256	11873	11862	1
11862	11863	11864	1
11862	11863	11867	1
11862	11861	11866	1
11862	11861	11869	1
11864	11871	11872	1
11864	11871	5028	1
11864	11863	11867	1
11864	11865	11866	1
11864	11865	11868	1
11861	11862	11863	1
11863	11864	11865	1
11861	11866	11865	1
11861	11866	11870	1
11865	11866	11870	1
11866	11861	11869	1
11866	11865	11868	1
1256	11873	11874	1
11872	11871	5028	1
2942	2941	2952	1
2940	2941	2952	1
2942	2943	2950	1
2944	2943	2950	1
2950	6553	6547	1
2950	6553	6554	1
2941	2952	2953	1
2941	2952	2954	1
2941	2942	2943	1
2941	2942	2946	1
2941	2940	2945	1
2941	2940	2948	1
2943	2950	2951	1
2943	2950	6553	1
2943	2942	2946	1
2943	2944	2945	1
2943	2944	2947	1
2940	2941	2942	1
2942	2943	2944	1
2940	2945	2944	1
2940	2945	2949	1
2944	2945	2949	1
2945	2940	2948	1
2945	2944	2947	1
2953	2952	2954	1
2951	2950	6553	1
13823	13822	13833	1
13821	13822	13833	1
2195	2202	13833	1
2204	2202	13833	1
13823	13824	13831	1
13825	13824	13831	1
1899	1906	13831	1
1908	1906	13831	1
13822	13833	13834	1
2202	13833	13822	1
13822	13823	13824	1
13822	13823	13827	1
13822	13821	13826	1
13822	13821	13829	1
13824	13831	13832	1
1906	13831	13824	1
13824	13823	13827	1
13824	13825	13826	1
13824	13825	13828	1
13821	13822	13823	1
13823	13824	13825	1
13821	13826	13825	1
13821	13826	13830	1
13825	13826	13830	1
13826	13821	13829	1
13826	13825	13828	1
2202	13833	13834	1
1906	13831	13832	1
8328	8329	8336	1
8330	8329	8336	1
8336	8346	8340	1
8336	8346	8347	1
8328	8327	8338	1
8326	8327	8338	1
8338	9690	9684	1
8338	9690	9691	1
8329	8336	8337	1
8329	8336	8346	1
8329	8328	8327	1
8329	8328	8332	1
8329	8330	8331	1
8329	8330	8333	1
8327	8338	8339	1
8327	8338	9690	1
8327	8328	8332	1
8327	8326	8331	1
8327	8326	8334	1
8330	8329	8328	1
8328	8327	8326	1
8330	8331	8326	1
8330	8331	8335	1
8326	8331	8335	1
8331	8330	8333	1
8331	8326	8334	1
8337	8336	8346	1
8339	8338	9690	1
1392	1391	1402	1
1390	1391	1402	1
602	609	1402	1
611	609	1402	1
1392	1393	1400	1
1394	1393	1400	1
1373	1379	1400	1
1380	1379	1400	1
1391	1402	1403	1
609	1402	1391	1
1391	1392	1393	1
1391	1392	1396	1
1391	1390	1395	1
1391	1390	1398	1
1393	1400	1401	1
1379	1400	1393	1
1393	1392	1396	1
1393	1394	1395	1
1393	1394	1397	1
1390	1391	1392	1
1392	1393	1394	1
1390	1395	1394	1
1390	1395	1399	1
1394	1395	1399	1
1395	1390	1398	1
1395	1394	1397	1
609	1402	1403	1
1379	1400	1401	1
7438	7437	7448	1
7436	7437	7448	1
7448	7456	7450	1
7448	7456	7457	1
7438	7439	7446	1
7440	7439	7446	1
7446	6238	6228	1
7446	6238	6240	1
7437	7448	7449	1
7437	7448	7456	1
7437	7438	7439	1
7437	7438	7442	1
7437	7436	7441	1
7437	7436	7444	1
7439	7446	7447	1
7439	7446	6238	1
7439	7438	7442	1
7439	7440	7441	1
7439	7440	7443	1
7436	7437	7438	1
7438	7439	7440	1
7436	7441	7440	1
7436	7441	7445	1
7440	7441	7445	1
7441	7436	7444	1
7441	7440	7443	1
7449	7448	7456	1
7447	7446	6238	1
11611	11612	11619	1
11613	11612	11619	1
11619	7563	7556	1
11619	7563	7565	1
11611	11610	11621	1
11609	11610	11621	1
11621	4620	4613	1
11621	4620	4622	1
11612	11619	11620	1
11612	11619	7563	1
11610	11611	11612	1
11612	11611	11615	1
11612	11613	11614	1
11612	11613	11616	1
11610	11621	11622	1
11610	11621	4620	1
11610	11611	11615	1
11610	11609	11614	1
11610	11609	11617	1
11611	11612	11613	1
11609	11610	11611	1
11609	11614	11613	1
11613	11614	11618	1
11609	11614	11618	1
11614	11613	11616	1
11614	11609	11617	1
11620	11619	7563	1
11622	11621	4620	1
12241	12242	12249	1
12243	12242	12249	1
12249	6616	6609	1
12249	6616	6618	1
12241	12240	12251	1
12239	12240	12251	1
12251	5727	5717	1
12251	5727	5729	1
12242	12249	12250	1
12242	12249	6616	1
12240	12241	12242	1
12242	12241	12245	1
12242	12243	12244	1
12242	12243	12246	1
12240	12251	12252	1
12240	12251	5727	1
12240	12241	12245	1
12240	12239	12244	1
12240	12239	12247	1
12241	12242	12243	1
12239	12240	12241	1
12239	12244	12243	1
12243	12244	12248	1
12239	12244	12248	1
12244	12243	12246	1
12244	12239	12247	1
12250	12249	6616	1
12252	12251	5727	1
6243	6242	6253	1
6241	6242	6253	1
6253	6261	6255	1
6253	6261	6262	1
6243	6244	6251	1
6245	6244	6251	1
6251	4184	4177	1
6251	4184	4186	1
6242	6253	6254	1
6242	6253	6261	1
6242	6243	6244	1
6242	6243	6247	1
6242	6241	6246	1
6242	6241	6249	1
6244	6251	6252	1
6244	6251	4184	1
6244	6243	6247	1
6244	6245	6246	1
6244	6245	6248	1
6241	6242	6243	1
6243	6244	6245	1
6241	6246	6245	1
6241	6246	6250	1
6245	6246	6250	1
6246	6241	6249	1
6246	6245	6248	1
6254	6253	6261	1
6252	6251	4184	1
4132	4131	4142	1
4130	4131	4142	1
4142	4150	4144	1
4142	4150	4151	1
4132	4133	4140	1
4134	4133	4140	1
4140	7767	7760	1
4140	7767	7769	1
4131	4142	4143	1
4131	4142	4150	1
4131	4132	4133	1
4131	4132	4136	1
4131	4130	4135	1
4131	4130	4138	1
4133	4140	4141	1
4133	4140	7767	1
4133	4132	4136	1
4133	4134	4135	1
4133	4134	4137	1
4130	4131	4132	1
4132	4133	4134	1
4130	4135	4134	1
4130	4135	4139	1
4134	4135	4139	1
4135	4130	4138	1
4135	4134	4137	1
4143	4142	4150	1
4141	4140	7767	1
11709	11708	11719	1
11707	11708	11719	1
11719	8352	8342	1
11719	8352	8354	1
11709	11710	11717	1
11711	11710	11717	1
11717	4766	4756	1
11717	4766	4768	1
11708	11719	11720	1
11708	11719	8352	1
11708	11709	11710	1
11708	11709	11713	1
11708	11707	11712	1
11708	11707	11715	1
11710	11717	11718	1
11710	11717	4766	1
11710	11709	11713	1
11710	11711	11712	1
11710	11711	11714	1
11707	11708	11709	1
11709	11710	11711	1
11707	11712	11711	1
11707	11712	11716	1
11711	11712	11716	1
11712	11707	11715	1
11712	11711	11714	1
11720	11719	8352	1
11718	11717	4766	1
7991	7990	8001	1
7989	7990	8001	1
8001	8009	8003	1
8001	8009	8010	1
7991	7992	7999	1
7993	7992	7999	1
7999	3894	3887	1
7999	3894	3896	1
7990	8001	8002	1
7990	8001	8009	1
7990	7991	7992	1
7990	7991	7995	1
7990	7989	7994	1
7990	7989	7997	1
7992	7999	8000	1
7992	7999	3894	1
7992	7991	7995	1
7992	7993	7994	1
7992	7993	7996	1
7989	7990	7991	1
7991	7992	7993	1
7989	7994	7993	1
7989	7994	7998	1
7993	7994	7998	1
7994	7989	7997	1
7994	7993	7996	1
8002	8001	8009	1
8000	7999	3894	1
4713	4712	4723	1
4711	4712	4723	1
4723	6340	6333	1
4723	6340	6342	1
4713	4714	4721	1
4715	4714	4721	1
4721	4731	4725	1
4721	4731	4732	1
4712	4723	4724	1
4712	4723	6340	1
4712	4713	4714	1
4712	4713	4717	1
4712	4711	4716	1
4712	4711	4719	1
4714	4721	4722	1
4714	4721	4731	1
4714	4713	4717	1
4714	4715	4716	1
4714	4715	4718	1
4711	4712	4713	1
4713	4714	4715	1
4711	4716	4715	1
4711	4716	4720	1
4715	4716	4720	1
4716	4711	4719	1
4716	4715	4718	1
4724	4723	6340	1
4722	4721	4731	1
4655	4654	4665	1
4653	4654	4665	1
850	857	4665	1
859	857	4665	1
4655	4656	4663	1
4657	4656	4663	1
4663	4678	4671	1
4663	4678	4680	1
4654	4665	4666	1
857	4665	4654	1
4654	4655	4656	1
4654	4655	4659	1
4654	4653	4658	1
4654	4653	4661	1
4656	4663	4664	1
4656	4663	4678	1
4656	4655	4659	1
4656	4657	4658	1
4656	4657	4660	1
4653	4654	4655	1
4655	4656	4657	1
4653	4658	4657	1
4653	4658	4662	1
4657	4658	4662	1
4658	4653	4661	1
4658	4657	4660	1
857	4665	4666	1
4664	4663	4678	1
10065	10064	10075	1
10063	10064	10075	1
10075	10089	10079	1
10075	10089	10091	1
10065	10066	10073	1
10067	10066	10073	1
10073	8777	8767	1
10073	8777	8779	1
10064	10075	10076	1
10064	10075	10089	1
10064	10065	10066	1
10064	10065	10069	1
10064	10063	10068	1
10064	10063	10071	1
10066	10073	10074	1
10066	10073	8777	1
10066	10065	10069	1
10066	10067	10068	1
10066	10067	10070	1
10063	10064	10065	1
10065	10066	10067	1
10063	10068	10067	1
10063	10068	10072	1
10067	10068	10072	1
10068	10063	10071	1
10068	10067	10070	1
10076	10075	10089	1
10074	10073	8777	1
5820	5819	5830	1
5818	5819	5830	1
5830	5838	5832	1
5830	5838	5839	1
5820	5821	5828	1
5822	5821	5828	1
5828	8756	8750	1
5828	8756	8757	1
5819	5830	5831	1
5819	5830	5838	1
5819	5820	5821	1
5819	5820	5824	1
5819	5818	5823	1
5819	5818	5826	1
5821	5828	5829	1
5821	5828	8756	1
5821	5820	5824	1
5821	5822	5823	1
5821	5822	5825	1
5818	5819	5820	1
5820	5821	5822	1
5818	5823	5822	1
5818	5823	5827	1
5822	5823	5827	1
5823	5818	5826	1
5823	5822	5825	1
5831	5830	5838	1
5829	5828	8756	1
2987	2986	2997	1
2985	2986	2997	1
2987	2988	2995	1
2989	2988	2995	1
2995	6713	6707	1
2995	6713	6714	1
2986	2997	2998	1
2986	2997	2999	1
2986	2987	2988	1
2986	2987	2991	1
2986	2985	2990	1
2986	2985	2993	1
2988	2995	2996	1
2988	2995	6713	1
2988	2987	2991	1
2988	2989	2990	1
2988	2989	2992	1
2985	2986	2987	1
2987	2988	2989	1
2985	2990	2989	1
2985	2990	2994	1
2989	2990	2994	1
2990	2985	2993	1
2990	2989	2992	1
2998	2997	2999	1
2996	2995	6713	1
6957	6956	6967	1
6955	6956	6967	1
6967	11151	11145	1
6967	11151	11152	1
6957	6958	6965	1
6959	6958	6965	1
6965	6980	6973	1
6965	6980	6982	1
6956	6967	6968	1
6956	6967	11151	1
6956	6957	6958	1
6956	6957	6961	1
6956	6955	6960	1
6956	6955	6963	1
6958	6965	6966	1
6958	6965	6980	1
6958	6957	6961	1
6958	6959	6960	1
6958	6959	6962	1
6955	6956	6957	1
6957	6958	6959	1
6955	6960	6959	1
6955	6960	6964	1
6959	6960	6964	1
6960	6955	6963	1
6960	6959	6962	1
6968	6967	11151	1
6966	6965	6980	1
1283	1282	1293	1
1281	1282	1293	1
1293	7490	7483	1
1293	7490	7492	1
1283	1284	1291	1
1285	1284	1291	1
1264	1270	1291	1
1271	1270	1291	1
1282	1293	1294	1
1282	1293	7490	1
1282	1283	1284	1
1282	1283	1287	1
1282	1281	1286	1
1282	1281	1289	1
1284	1291	1292	1
1270	1291	1284	1
1284	1283	1287	1
1284	1285	1286	1
1284	1285	1288	1
1281	1282	1283	1
1283	1284	1285	1
1281	1286	1285	1
1281	1286	1290	1
1285	1286	1290	1
1286	1281	1289	1
1286	1285	1288	1
1294	1293	7490	1
1270	1291	1292	1
2567	2566	2577	1
2565	2566	2577	1
788	795	2577	1
797	795	2577	1
2567	2568	2575	1
2569	2568	2575	1
2548	2554	2575	1
2555	2554	2575	1
2566	2577	2578	1
795	2577	2566	1
2566	2567	2568	1
2566	2567	2571	1
2566	2565	2570	1
2566	2565	2573	1
2568	2575	2576	1
2554	2575	2568	1
2568	2567	2571	1
2568	2569	2570	1
2568	2569	2572	1
2565	2566	2567	1
2567	2568	2569	1
2565	2570	2569	1
2565	2570	2574	1
2569	2570	2574	1
2570	2565	2573	1
2570	2569	2572	1
795	2577	2578	1
2554	2575	2576	1
6375	6376	6383	1
6377	6376	6383	1
6383	7738	7731	1
6383	7738	7740	1
6375	6374	6385	1
6373	6374	6385	1
6385	6393	6387	1
6385	6393	6394	1
6376	6383	6384	1
6376	6383	7738	1
6376	6375	6374	1
6376	6375	6379	1
6376	6377	6378	1
6376	6377	6380	1
6374	6385	6386	1
6374	6385	6393	1
6374	6375	6379	1
6374	6373	6378	1
6374	6373	6381	1
6377	6376	6375	1
6375	6374	6373	1
6377	6378	6373	1
6377	6378	6382	1
6373	6378	6382	1
6378	6377	6380	1
6378	6373	6381	1
6384	6383	7738	1
6386	6385	6393	1
11219	11218	11229	1
11217	11218	11229	1
11229	7461	7454	1
11229	7461	7463	1
11219	11220	11227	1
11221	11220	11227	1
11227	3865	3858	1
11227	3865	3867	1
11218	11229	11230	1
11218	11229	7461	1
11218	11219	11220	1
11218	11219	11223	1
11218	11217	11222	1
11218	11217	11225	1
11220	11227	11228	1
11220	11227	3865	1
11220	11219	11223	1
11220	11221	11222	1
11220	11221	11224	1
11217	11218	11219	1
11219	11220	11221	1
11217	11222	11221	1
11217	11222	11226	1
11221	11222	11226	1
11222	11217	11225	1
11222	11221	11224	1
11230	11229	7461	1
11228	11227	3865	1
10341	10340	10351	1
10339	10340	10351	1
10351	4316	4306	1
10351	4316	4318	1
10341	10342	10349	1
10343	10342	10349	1
10349	10359	10353	1
10349	10359	10360	1
10340	10351	10352	1
10340	10351	4316	1
10340	10341	10342	1
10340	10341	10345	1
10340	10339	10344	1
10340	10339	10347	1
10342	10349	10350	1
10342	10349	10359	1
10342	10341	10345	1
10342	10343	10344	1
10342	10343	10346	1
10339	10340	10341	1
10341	10342	10343	1
10339	10344	10343	1
10339	10344	10348	1
10343	10344	10348	1
10344	10339	10347	1
10344	10343	10346	1
10352	10351	4316	1
10350	10349	10359	1
3812	3813	3820	1
3814	3813	3820	1
757	764	3820	1
766	764	3820	1
3812	3811	3822	1
3810	3811	3822	1
3813	3820	3821	1
764	3820	3813	1
3811	3812	3813	1
3813	3812	3816	1
3813	3814	3815	1
3813	3814	3817	1
3811	3822	3824	1
3811	3822	3823	1
3811	3812	3816	1
3811	3810	3815	1
3811	3810	3818	1
3812	3813	3814	1
3810	3811	3812	1
3810	3815	3814	1
3814	3815	3819	1
3810	3815	3819	1
3815	3814	3817	1
3815	3810	3818	1
764	3820	3821	1
3823	3822	3824	1
11261	11260	11271	1
11259	11260	11271	1
11271	6792	6782	1
11271	6792	6794	1
11261	11262	11269	1
11263	11262	11269	1
11269	4011	4001	1
11269	4011	4013	1
11260	11271	11272	1
11260	11271	6792	1
11260	11261	11262	1
11260	11261	11265	1
11260	11259	11264	1
11260	11259	11267	1
11262	11269	11270	1
11262	11269	4011	1
11262	11261	11265	1
11262	11263	11264	1
11262	11263	11266	1
11259	11260	11261	1
11261	11262	11263	1
11259	11264	11263	1
11259	11264	11268	1
11263	11264	11268	1
11264	11259	11267	1
11264	11263	11266	1
11272	11271	6792	1
11270	11269	4011	1
10562	10561	10572	1
10560	10561	10572	1
10572	11048	11042	1
10572	11048	11049	1
10562	10563	10570	1
10564	10563	10570	1
10570	10580	10574	1
10570	10580	10581	1
10561	10572	10573	1
10561	10572	11048	1
10561	10562	10563	1
10561	10562	10566	1
10561	10560	10565	1
10561	10560	10568	1
10563	10570	10571	1
10563	10570	10580	1
10563	10562	10566	1
10563	10564	10565	1
10563	10564	10567	1
10560	10561	10562	1
10562	10563	10564	1
10560	10565	10564	1
10560	10565	10569	1
10564	10565	10569	1
10565	10560	10568	1
10565	10564	10567	1
10573	10572	11048	1
10571	10570	10580	1
7103	7102	7113	1
7101	7102	7113	1
7113	7121	7115	1
7113	7121	7122	1
7103	7104	7111	1
7105	7104	7111	1
7111	5916	5909	1
7111	5916	5918	1
7102	7113	7114	1
7102	7113	7121	1
7102	7103	7104	1
7102	7103	7107	1
7102	7101	7106	1
7102	7101	7109	1
7104	7111	7112	1
7104	7111	5916	1
7104	7103	7107	1
7104	7105	7106	1
7104	7105	7108	1
7101	7102	7103	1
7103	7104	7105	1
7101	7106	7105	1
7101	7106	7110	1
7105	7106	7110	1
7106	7101	7109	1
7106	7105	7108	1
7114	7113	7121	1
7112	7111	5916	1
1822	1821	1832	1
1820	1821	1832	1
1807	1814	1832	1
1816	1814	1832	1
1822	1823	1830	1
1824	1823	1830	1
293	300	1830	1
302	300	1830	1
1821	1832	1833	1
1814	1832	1821	1
1821	1822	1823	1
1821	1822	1826	1
1821	1820	1825	1
1821	1820	1828	1
1823	1830	1831	1
300	1830	1823	1
1823	1822	1826	1
1823	1824	1825	1
1823	1824	1827	1
1820	1821	1822	1
1822	1823	1824	1
1820	1825	1824	1
1820	1825	1829	1
1824	1825	1829	1
1825	1820	1828	1
1825	1824	1827	1
1814	1832	1833	1
300	1830	1831	1
12829	12828	12839	1
12827	12828	12839	1
12839	6995	6988	1
12839	6995	6997	1
12829	12830	12837	1
12831	12830	12837	1
12837	10701	10694	1
12837	10701	10703	1
12828	12839	12840	1
12828	12839	6995	1
12828	12829	12830	1
12828	12829	12833	1
12828	12827	12832	1
12828	12827	12835	1
12830	12837	12838	1
12830	12837	10701	1
12830	12829	12833	1
12830	12831	12832	1
12830	12831	12834	1
12827	12828	12829	1
12829	12830	12831	1
12827	12832	12831	1
12827	12832	12836	1
12831	12832	12836	1
12832	12827	12835	1
12832	12831	12834	1
12840	12839	6995	1
12838	12837	10701	1
3377	3376	3387	1
3375	3376	3387	1
3377	3378	3385	1
3379	3378	3385	1
3385	9112	9105	1
3385	9112	9114	1
3376	3387	3388	1
3376	3387	3389	1
3376	3377	3378	1
3376	3377	3381	1
3376	3375	3380	1
3376	3375	3383	1
3378	3385	3386	1
3378	3385	9112	1
3378	3377	3381	1
3378	3379	3380	1
3378	3379	3382	1
3375	3376	3377	1
3377	3378	3379	1
3375	3380	3379	1
3375	3380	3384	1
3379	3380	3384	1
3380	3375	3383	1
3380	3379	3382	1
3388	3387	3389	1
3386	3385	9112	1
13529	13528	13539	1
13527	13528	13539	1
13539	9024	9017	1
13539	9024	9026	1
13529	13530	13537	1
13531	13530	13537	1
13537	10834	10824	1
13537	10834	10836	1
13528	13539	13540	1
13528	13539	9024	1
13528	13529	13530	1
13528	13529	13533	1
13528	13527	13532	1
13528	13527	13535	1
13530	13537	13538	1
13530	13537	10834	1
13530	13529	13533	1
13530	13531	13532	1
13530	13531	13534	1
13527	13528	13529	1
13529	13530	13531	1
13527	13532	13531	1
13527	13532	13536	1
13531	13532	13536	1
13532	13527	13535	1
13532	13531	13534	1
13540	13539	9024	1
13538	13537	10834	1
11933	11932	11943	1
11931	11932	11943	1
2024	2031	11943	1
2033	2031	11943	1
11933	11934	11941	1
11935	11934	11941	1
11941	5159	5149	1
11941	5159	5161	1
11932	11943	11944	1
2031	11943	11932	1
11932	11933	11934	1
11932	11933	11937	1
11932	11931	11936	1
11932	11931	11939	1
11934	11941	11942	1
11934	11941	5159	1
11934	11933	11937	1
11934	11935	11936	1
11934	11935	11938	1
11931	11932	11933	1
11933	11934	11935	1
11931	11936	11935	1
11931	11936	11940	1
11935	11936	11940	1
11936	11931	11939	1
11936	11935	11938	1
2031	11943	11944	1
11942	11941	5159	1
11247	11246	11257	1
11245	11246	11257	1
11257	3924	3914	1
11257	3924	3926	1
11247	11248	11255	1
11249	11248	11255	1
2085	2092	11255	1
2094	2092	11255	1
11246	11257	11258	1
11246	11257	3924	1
11246	11247	11248	1
11246	11247	11251	1
11246	11245	11250	1
11246	11245	11253	1
11248	11255	11256	1
2092	11255	11248	1
11248	11247	11251	1
11248	11249	11250	1
11248	11249	11252	1
11245	11246	11247	1
11247	11248	11249	1
11245	11250	11249	1
11245	11250	11254	1
11249	11250	11254	1
11250	11245	11253	1
11250	11249	11252	1
11258	11257	3924	1
2092	11255	11256	1
3602	3601	3612	1
3600	3601	3612	1
3602	3603	3610	1
3604	3603	3610	1
3610	10740	10734	1
3610	10740	10741	1
3601	3612	3614	1
3601	3612	3613	1
3601	3602	3603	1
3601	3602	3606	1
3601	3600	3605	1
3601	3600	3608	1
3603	3610	3611	1
3603	3610	10740	1
3603	3602	3606	1
3603	3604	3605	1
3603	3604	3607	1
3600	3601	3602	1
3602	3603	3604	1
3600	3605	3604	1
3600	3605	3609	1
3604	3605	3609	1
3605	3600	3608	1
3605	3604	3607	1
3613	3612	3614	1
3611	3610	10740	1
308	309	316	1
310	309	316	1
316	7710	7700	1
316	7710	7712	1
308	307	318	1
306	307	318	1
289	295	318	1
296	295	318	1
309	316	317	1
309	316	7710	1
309	308	307	1
309	308	312	1
309	310	311	1
309	310	313	1
307	318	319	1
295	318	307	1
307	308	312	1
307	306	311	1
307	306	314	1
310	309	308	1
308	307	306	1
310	311	306	1
310	311	315	1
306	311	315	1
311	310	313	1
311	306	314	1
317	316	7710	1
295	318	319	1
2598	2597	2608	1
2596	2597	2608	1
2579	2585	2608	1
2586	2585	2608	1
2598	2599	2606	1
2600	2599	2606	1
417	424	2606	1
426	424	2606	1
2597	2608	2609	1
2585	2608	2597	1
2597	2598	2599	1
2597	2598	2602	1
2597	2596	2601	1
2597	2596	2604	1
2599	2606	2607	1
424	2606	2599	1
2599	2598	2602	1
2599	2600	2601	1
2599	2600	2603	1
2596	2597	2598	1
2598	2599	2600	1
2596	2601	2600	1
2596	2601	2605	1
2600	2601	2605	1
2601	2596	2604	1
2601	2600	2603	1
2585	2608	2609	1
424	2606	2607	1
5542	5541	5552	1
5540	5541	5552	1
5552	5560	5554	1
5552	5560	5561	1
5542	5543	5550	1
5544	5543	5550	1
5550	10872	10866	1
5550	10872	10873	1
5541	5552	5553	1
5541	5552	5560	1
5541	5542	5543	1
5541	5542	5546	1
5541	5540	5545	1
5541	5540	5548	1
5543	5550	5551	1
5543	5550	10872	1
5543	5542	5546	1
5543	5544	5545	1
5543	5544	5547	1
5540	5541	5542	1
5542	5543	5544	1
5540	5545	5544	1
5540	5545	5549	1
5544	5545	5549	1
5545	5540	5548	1
5545	5544	5547	1
5553	5552	5560	1
5551	5550	10872	1
4321	4320	4331	1
4319	4320	4331	1
4331	4339	4333	1
4331	4339	4340	1
4321	4322	4329	1
4323	4322	4329	1
4329	8639	8633	1
4329	8639	8640	1
4320	4331	4332	1
4320	4331	4339	1
4320	4321	4322	1
4320	4321	4325	1
4320	4319	4324	1
4320	4319	4327	1
4322	4329	4330	1
4322	4329	8639	1
4322	4321	4325	1
4322	4323	4324	1
4322	4323	4326	1
4319	4320	4321	1
4321	4322	4323	1
4319	4324	4323	1
4319	4324	4328	1
4323	4324	4328	1
4324	4319	4327	1
4324	4323	4326	1
4332	4331	4339	1
4330	4329	8639	1
13837	13836	13847	1
13835	13836	13847	1
1301	1303	13847	1
1304	1303	13847	1
13837	13838	13845	1
13839	13838	13845	1
1652	1659	13845	1
1661	1659	13845	1
13836	13847	13848	1
1303	13847	13836	1
13836	13837	13838	1
13836	13837	13841	1
13836	13835	13840	1
13836	13835	13843	1
13838	13845	13846	1
1659	13845	13838	1
13838	13837	13841	1
13838	13839	13840	1
13838	13839	13842	1
13835	13836	13837	1
13837	13838	13839	1
13835	13840	13839	1
13835	13840	13844	1
13839	13840	13844	1
13840	13835	13843	1
13840	13839	13842	1
1303	13847	13848	1
1659	13845	13846	1
3287	3286	3297	1
3285	3286	3297	1
3287	3288	3295	1
3289	3288	3295	1
3295	8908	8898	1
3295	8908	8910	1
3286	3297	3298	1
3286	3297	3299	1
3286	3287	3288	1
3286	3287	3291	1
3286	3285	3290	1
3286	3285	3293	1
3288	3295	3296	1
3288	3295	8908	1
3288	3287	3291	1
3288	3289	3290	1
3288	3289	3292	1
3285	3286	3287	1
3287	3288	3289	1
3285	3290	3289	1
3285	3290	3294	1
3289	3290	3294	1
3290	3285	3293	1
3290	3289	3292	1
3298	3297	3299	1
3296	3295	8908	1
12535	12534	12545	1
12533	12534	12545	1
12545	6223	6213	1
12545	6223	6225	1
12535	12536	12543	1
12537	12536	12543	1
12543	6617	6607	1
12543	6617	6619	1
12534	12545	12546	1
12534	12545	6223	1
12534	12535	12536	1
12534	12535	12539	1
12534	12533	12538	1
12534	12533	12541	1
12536	12543	12544	1
12536	12543	6617	1
12536	12535	12539	1
12536	12537	12538	1
12536	12537	12540	1
12533	12534	12535	1
12535	12536	12537	1
12533	12538	12537	1
12533	12538	12542	1
12537	12538	12542	1
12538	12533	12541	1
12538	12537	12540	1
12546	12545	6223	1
12544	12543	6617	1
12311	12310	12321	1
12309	12310	12321	1
12321	7025	7015	1
12321	7025	7027	1
12311	12312	12319	1
12313	12312	12319	1
12319	5815	5805	1
12319	5815	5817	1
12310	12321	12322	1
12310	12321	7025	1
12310	12311	12312	1
12310	12311	12315	1
12310	12309	12314	1
12310	12309	12317	1
12312	12319	12320	1
12312	12319	5815	1
12312	12311	12315	1
12312	12313	12314	1
12312	12313	12316	1
12309	12310	12311	1
12311	12312	12313	1
12309	12314	12313	1
12309	12314	12318	1
12313	12314	12318	1
12314	12309	12317	1
12314	12313	12316	1
12322	12321	7025	1
12320	12319	5815	1
11387	11386	11397	1
11385	11386	11397	1
11397	4213	4206	1
11397	4213	4215	1
11387	11388	11395	1
11389	11388	11395	1
11395	10410	10400	1
11395	10410	10412	1
11386	11397	11398	1
11386	11397	4213	1
11386	11387	11388	1
11386	11387	11391	1
11386	11385	11390	1
11386	11385	11393	1
11388	11395	11396	1
11388	11395	10410	1
11388	11387	11391	1
11388	11389	11390	1
11388	11389	11392	1
11385	11386	11387	1
11387	11388	11389	1
11385	11390	11389	1
11385	11390	11394	1
11389	11390	11394	1
11390	11385	11393	1
11390	11389	11392	1
11398	11397	4213	1
11396	11395	10410	1
5280	5279	5290	1
5278	5279	5290	1
5290	5298	5292	1
5290	5298	5299	1
5280	5281	5288	1
5282	5281	5288	1
5288	7127	7117	1
5288	7127	7129	1
5279	5290	5291	1
5279	5290	5298	1
5279	5280	5281	1
5279	5280	5284	1
5279	5278	5283	1
5279	5278	5286	1
5281	5288	5289	1
5281	5288	7127	1
5281	5280	5284	1
5281	5282	5283	1
5281	5282	5285	1
5278	5279	5280	1
5280	5281	5282	1
5278	5283	5282	1
5278	5283	5287	1
5282	5283	5287	1
5283	5278	5286	1
5283	5282	5285	1
5291	5290	5298	1
5289	5288	7127	1
1423	1422	1433	1
1421	1422	1433	1
1404	1410	1433	1
1411	1410	1433	1
1423	1424	1431	1
1425	1424	1431	1
1431	8741	8735	1
1431	8741	8742	1
1422	1433	1434	1
1410	1433	1422	1
1422	1423	1424	1
1422	1423	1427	1
1422	1421	1426	1
1422	1421	1429	1
1424	1431	1432	1
1424	1431	8741	1
1424	1423	1427	1
1424	1425	1426	1
1424	1425	1428	1
1421	1422	1423	1
1423	1424	1425	1
1421	1426	1425	1
1421	1426	1430	1
1425	1426	1430	1
1426	1421	1429	1
1426	1425	1428	1
1410	1433	1434	1
1432	1431	8741	1
12633	12632	12643	1
12631	12632	12643	1
12643	6821	6811	1
12643	6821	6823	1
12633	12634	12641	1
12635	12634	12641	1
12641	6399	6389	1
12641	6399	6401	1
12632	12643	12644	1
12632	12643	6821	1
12632	12633	12634	1
12632	12633	12637	1
12632	12631	12636	1
12632	12631	12639	1
12634	12641	12642	1
12634	12641	6399	1
12634	12633	12637	1
12634	12635	12636	1
12634	12635	12638	1
12631	12632	12633	1
12633	12634	12635	1
12631	12636	12635	1
12631	12636	12640	1
12635	12636	12640	1
12636	12631	12639	1
12636	12635	12638	1
12644	12643	6821	1
12642	12641	6399	1
11877	11876	11887	1
11875	11876	11887	1
11887	8703	8693	1
11887	8703	8705	1
11877	11878	11885	1
11879	11878	11885	1
11885	5072	5062	1
11885	5072	5074	1
11876	11887	11888	1
11876	11887	8703	1
11876	11877	11878	1
11876	11877	11881	1
11876	11875	11880	1
11876	11875	11883	1
11878	11885	11886	1
11878	11885	5072	1
11878	11877	11881	1
11878	11879	11880	1
11878	11879	11882	1
11875	11876	11877	1
11877	11878	11879	1
11875	11880	11879	1
11875	11880	11884	1
11879	11880	11884	1
11880	11875	11883	1
11880	11879	11882	1
11888	11887	8703	1
11886	11885	5072	1
4902	4901	4912	1
4900	4901	4912	1
355	362	4912	1
364	362	4912	1
4902	4903	4910	1
4904	4903	4910	1
4910	4920	4914	1
4910	4920	4921	1
4901	4912	4913	1
362	4912	4901	1
4901	4902	4903	1
4901	4902	4906	1
4901	4900	4905	1
4901	4900	4908	1
4903	4910	4911	1
4903	4910	4920	1
4903	4902	4906	1
4903	4904	4905	1
4903	4904	4907	1
4900	4901	4902	1
4902	4903	4904	1
4900	4905	4904	1
4900	4905	4909	1
4904	4905	4909	1
4905	4900	4908	1
4905	4904	4907	1
362	4912	4913	1
4911	4910	4920	1
5952	5953	5960	1
5954	5953	5960	1
5960	8014	8007	1
5960	8014	8016	1
5952	5951	5962	1
5950	5951	5962	1
5962	5970	5964	1
5962	5970	5971	1
5953	5960	5961	1
5953	5960	8014	1
5951	5952	5953	1
5953	5952	5956	1
5953	5954	5955	1
5953	5954	5957	1
5951	5962	5963	1
5951	5962	5970	1
5951	5952	5956	1
5951	5950	5955	1
5951	5950	5958	1
5952	5953	5954	1
5950	5951	5952	1
5950	5955	5954	1
5954	5955	5959	1
5950	5955	5959	1
5955	5954	5957	1
5955	5950	5958	1
5961	5960	8014	1
5963	5962	5970	1
11373	11372	11383	1
11371	11372	11383	1
11383	4954	4947	1
11383	4954	4956	1
11373	11374	11381	1
11375	11374	11381	1
11381	4185	4175	1
11381	4185	4187	1
11372	11383	11384	1
11372	11383	4954	1
11372	11373	11374	1
11372	11373	11377	1
11372	11371	11376	1
11372	11371	11379	1
11374	11381	11382	1
11374	11381	4185	1
11374	11373	11377	1
11374	11375	11376	1
11374	11375	11378	1
11371	11372	11373	1
11373	11374	11375	1
11371	11376	11375	1
11371	11376	11380	1
11375	11376	11380	1
11376	11371	11379	1
11376	11375	11378	1
11384	11383	4954	1
11382	11381	4185	1
12227	12226	12237	1
12225	12226	12237	1
1714	1721	12237	1
1723	1721	12237	1
12227	12228	12235	1
12229	12228	12235	1
12235	5692	5686	1
12235	5692	5693	1
12226	12237	12238	1
1721	12237	12226	1
12226	12227	12228	1
12226	12227	12231	1
12226	12225	12230	1
12226	12225	12233	1
12228	12235	12236	1
12228	12235	5692	1
12228	12227	12231	1
12228	12229	12230	1
12228	12229	12232	1
12225	12226	12227	1
12227	12228	12229	1
12225	12230	12229	1
12225	12230	12234	1
12229	12230	12234	1
12230	12225	12233	1
12230	12229	12232	1
1721	12237	12238	1
12236	12235	5692	1
10649	10648	10659	1
10647	10648	10659	1
10659	10667	10661	1
10659	10667	10668	1
10649	10650	10657	1
10651	10650	10657	1
10657	10878	10868	1
10657	10878	10880	1
10648	10659	10660	1
10648	10659	10667	1
10648	10649	10650	1
10648	10649	10653	1
10648	10647	10652	1
10648	10647	10655	1
10650	10657	10658	1
10650	10657	10878	1
10650	10649	10653	1
10650	10651	10652	1
10650	10651	10654	1
10647	10648	10649	1
10649	10650	10651	1
10647	10652	10651	1
10647	10652	10656	1
10651	10652	10656	1
10652	10647	10655	1
10652	10651	10654	1
10660	10659	10667	1
10658	10657	10878	1
3572	3571	3582	1
3570	3571	3582	1
3572	3573	3580	1
3574	3573	3580	1
3580	10497	10490	1
3580	10497	10499	1
3571	3582	3583	1
3571	3582	3584	1
3571	3572	3573	1
3571	3572	3576	1
3571	3570	3575	1
3571	3570	3578	1
3573	3580	3581	1
3573	3580	10497	1
3573	3572	3576	1
3573	3574	3575	1
3573	3574	3577	1
3570	3571	3572	1
3572	3573	3574	1
3570	3575	3574	1
3570	3575	3579	1
3574	3575	3579	1
3575	3570	3578	1
3575	3574	3577	1
3583	3582	3584	1
3581	3580	10497	1
494	493	504	1
492	493	504	1
504	9938	9932	1
504	9938	9939	1
494	495	502	1
496	495	502	1
475	481	502	1
482	481	502	1
493	504	505	1
493	504	9938	1
493	494	495	1
493	494	498	1
493	492	497	1
493	492	500	1
495	502	503	1
481	502	495	1
495	494	498	1
495	496	497	1
495	496	499	1
492	493	494	1
494	495	496	1
492	497	496	1
492	497	501	1
496	497	501	1
497	492	500	1
497	496	499	1
505	504	9938	1
481	502	503	1
7773	7772	7783	1
7771	7772	7783	1
7783	5071	5064	1
7783	5071	5073	1
7773	7774	7781	1
7775	7774	7781	1
7781	7791	7785	1
7781	7791	7792	1
7772	7783	7784	1
7772	7783	5071	1
7772	7773	7774	1
7772	7773	7777	1
7772	7771	7776	1
7772	7771	7779	1
7774	7781	7782	1
7774	7781	7791	1
7774	7773	7777	1
7774	7775	7776	1
7774	7775	7778	1
7771	7772	7773	1
7773	7774	7775	1
7771	7776	7775	1
7771	7776	7780	1
7775	7776	7780	1
7776	7771	7779	1
7776	7775	7778	1
7784	7783	5071	1
7782	7781	7791	1
11905	11904	11915	1
11903	11904	11915	1
11915	5129	5122	1
11915	5129	5131	1
11905	11906	11913	1
11907	11906	11913	1
11913	10031	10021	1
11913	10031	10033	1
11904	11915	11916	1
11904	11915	5129	1
11904	11905	11906	1
11904	11905	11909	1
11904	11903	11908	1
11904	11903	11911	1
11906	11913	11914	1
11906	11913	10031	1
11906	11905	11909	1
11906	11907	11908	1
11906	11907	11910	1
11903	11904	11905	1
11905	11906	11907	1
11903	11908	11907	1
11903	11908	11912	1
11907	11908	11912	1
11908	11903	11911	1
11908	11907	11910	1
11916	11915	5129	1
11914	11913	10031	1
213	212	223	1
211	212	223	1
200	202	223	1
203	202	223	1
213	214	221	1
215	214	221	1
221	8361	8355	1
221	8361	8362	1
212	223	224	1
202	223	212	1
212	213	214	1
212	213	217	1
212	211	216	1
212	211	219	1
214	221	222	1
214	221	8361	1
214	213	217	1
214	215	216	1
214	215	218	1
211	212	213	1
213	214	215	1
211	216	215	1
211	216	220	1
215	216	220	1
216	211	219	1
216	215	218	1
202	223	224	1
222	221	8361	1
10591	10590	10601	1
10589	10590	10601	1
10601	10609	10603	1
10601	10609	10610	1
10591	10592	10599	1
10593	10592	10599	1
10599	7913	7903	1
10599	7913	7915	1
10590	10601	10602	1
10590	10601	10609	1
10590	10591	10592	1
10590	10591	10595	1
10590	10589	10594	1
10590	10589	10597	1
10592	10599	10600	1
10592	10599	7913	1
10592	10591	10595	1
10592	10593	10594	1
10592	10593	10596	1
10589	10590	10591	1
10591	10592	10593	1
10589	10594	10593	1
10589	10594	10598	1
10593	10594	10598	1
10594	10589	10597	1
10594	10593	10596	1
10602	10601	10609	1
10600	10599	7913	1
21	20	31	1
19	20	31	1
31	4010	4003	1
31	4010	4012	1
21	22	29	1
23	22	29	1
8	10	29	1
11	10	29	1
20	31	32	1
20	31	4010	1
20	21	22	1
20	21	25	1
20	19	24	1
20	19	27	1
22	29	30	1
10	29	22	1
22	21	25	1
22	23	24	1
22	23	26	1
19	20	21	1
21	22	23	1
19	24	23	1
19	24	28	1
23	24	28	1
24	19	27	1
24	23	26	1
32	31	4010	1
10	29	30	1
2747	2748	2755	1
2749	2748	2755	1
2755	5066	5060	1
2755	5066	5067	1
2747	2746	2757	1
2745	2746	2757	1
2748	2755	2756	1
2748	2755	5066	1
2746	2747	2748	1
2748	2747	2751	1
2748	2749	2750	1
2748	2749	2752	1
2746	2757	2758	1
2746	2757	2759	1
2746	2747	2751	1
2746	2745	2750	1
2746	2745	2753	1
2747	2748	2749	1
2745	2746	2747	1
2745	2750	2749	1
2749	2750	2754	1
2745	2750	2754	1
2750	2749	2752	1
2750	2745	2753	1
2756	2755	5066	1
2758	2757	2759	1
2210	2211	2218	1
2212	2211	2218	1
2191	2197	2218	1
2198	2197	2218	1
2210	2209	2220	1
2208	2209	2220	1
2220	8420	8414	1
2220	8420	8421	1
2211	2218	2219	1
2197	2218	2211	1
2209	2210	2211	1
2211	2210	2214	1
2211	2212	2213	1
2211	2212	2215	1
2209	2220	2221	1
2209	2220	8420	1
2209	2210	2214	1
2209	2208	2213	1
2209	2208	2216	1
2210	2211	2212	1
2208	2209	2210	1
2208	2213	2212	1
2212	2213	2217	1
2208	2213	2217	1
2213	2212	2215	1
2213	2208	2216	1
2197	2218	2219	1
2221	2220	8420	1
13725	13724	13735	1
13723	13724	13735	1
13735	10877	10870	1
13735	10877	10879	1
13725	13726	13733	1
13727	13726	13733	1
13733	10673	10663	1
13733	10673	10675	1
13724	13735	13736	1
13724	13735	10877	1
13724	13725	13726	1
13724	13725	13729	1
13724	13723	13728	1
13724	13723	13731	1
13726	13733	13734	1
13726	13733	10673	1
13726	13725	13729	1
13726	13727	13728	1
13726	13727	13730	1
13723	13724	13725	1
13725	13726	13727	1
13723	13728	13727	1
13723	13728	13732	1
13727	13728	13732	1
13728	13723	13731	1
13728	13727	13730	1
13736	13735	10877	1
13734	13733	10673	1
7234	7233	7244	1
7232	7233	7244	1
7244	6879	6869	1
7244	6879	6881	1
7234	7235	7242	1
7236	7235	7242	1
7242	7252	7246	1
7242	7252	7253	1
7233	7244	7245	1
7233	7244	6879	1
7233	7234	7235	1
7233	7234	7238	1
7233	7232	7237	1
7233	7232	7240	1
7235	7242	7243	1
7235	7242	7252	1
7235	7234	7238	1
7235	7236	7237	1
7235	7236	7239	1
7232	7233	7234	1
7234	7235	7236	1
7232	7237	7236	1
7232	7237	7241	1
7236	7237	7241	1
7237	7232	7240	1
7237	7236	7239	1
7245	7244	6879	1
7243	7242	7252	1
4103	4102	4113	1
4101	4102	4113	1
4113	4121	4115	1
4113	4121	4122	1
4103	4104	4111	1
4105	4104	4111	1
4111	5590	5584	1
4111	5590	5591	1
4102	4113	4114	1
4102	4113	4121	1
4102	4103	4104	1
4102	4103	4107	1
4102	4101	4106	1
4102	4101	4109	1
4104	4111	4112	1
4104	4111	5590	1
4104	4103	4107	1
4104	4105	4106	1
4104	4105	4108	1
4101	4102	4103	1
4103	4104	4105	1
4101	4106	4105	1
4101	4106	4110	1
4105	4106	4110	1
4106	4101	4109	1
4106	4105	4108	1
4114	4113	4121	1
4112	4111	5590	1
6112	6111	6122	1
6110	6111	6122	1
6122	6130	6124	1
6122	6130	6131	1
6112	6113	6120	1
6114	6113	6120	1
6120	6908	6898	1
6120	6908	6910	1
6111	6122	6123	1
6111	6122	6130	1
6111	6112	6113	1
6111	6112	6116	1
6111	6110	6115	1
6111	6110	6118	1
6113	6120	6121	1
6113	6120	6908	1
6113	6112	6116	1
6113	6114	6115	1
6113	6114	6117	1
6110	6111	6112	1
6112	6113	6114	1
6110	6115	6114	1
6110	6115	6119	1
6114	6115	6119	1
6115	6110	6118	1
6115	6114	6117	1
6123	6122	6130	1
6121	6120	6908	1
4292	4293	4300	1
4294	4293	4300	1
1035	1042	4300	1
1044	1042	4300	1
4292	4291	4302	1
4290	4291	4302	1
4302	4310	4304	1
4302	4310	4311	1
4293	4300	4301	1
1042	4300	4293	1
4291	4292	4293	1
4293	4292	4296	1
4293	4294	4295	1
4293	4294	4297	1
4291	4302	4303	1
4291	4302	4310	1
4291	4292	4296	1
4291	4290	4295	1
4291	4290	4298	1
4292	4293	4294	1
4290	4291	4292	1
4290	4295	4294	1
4294	4295	4299	1
4290	4295	4299	1
4295	4294	4297	1
4295	4290	4298	1
1042	4300	4301	1
4303	4302	4310	1
13291	13292	13299	1
13293	13292	13299	1
13299	9229	9219	1
13299	9229	9231	1
13291	13290	13301	1
13289	13290	13301	1
13301	8249	8239	1
13301	8249	8251	1
13292	13299	13300	1
13292	13299	9229	1
13290	13291	13292	1
13292	13291	13295	1
13292	13293	13294	1
13292	13293	13296	1
13290	13301	13302	1
13290	13301	8249	1
13290	13291	13295	1
13290	13289	13294	1
13290	13289	13297	1
13291	13292	13293	1
13289	13290	13291	1
13289	13294	13293	1
13293	13294	13298	1
13289	13294	13298	1
13294	13293	13296	1
13294	13289	13297	1
13300	13299	9229	1
13302	13301	8249	1
7074	7073	7084	1
7072	7073	7084	1
7084	11172	11162	1
7084	11172	11174	1
7074	7075	7082	1
7076	7075	7082	1
7082	7092	7086	1
7082	7092	7093	1
7073	7084	7085	1
7073	7084	11172	1
7073	7074	7075	1
7073	7074	7078	1
7073	7072	7077	1
7073	7072	7080	1
7075	7082	7083	1
7075	7082	7092	1
7075	7074	7078	1
7075	7076	7077	1
7075	7076	7079	1
7072	7073	7074	1
7074	7075	7076	1
7072	7077	7076	1
7072	7077	7081	1
7076	7077	7081	1
7077	7072	7080	1
7077	7076	7079	1
7085	7084	11172	1
7083	7082	7092	1
4161	4160	4171	1
4159	4160	4171	1
4171	5434	5427	1
4171	5434	5436	1
4161	4162	4169	1
4163	4162	4169	1
4169	4179	4173	1
4169	4179	4180	1
4160	4171	4172	1
4160	4171	5434	1
4160	4161	4162	1
4160	4161	4165	1
4160	4159	4164	1
4160	4159	4167	1
4162	4169	4170	1
4162	4169	4179	1
4162	4161	4165	1
4162	4163	4164	1
4162	4163	4166	1
4159	4160	4161	1
4161	4162	4163	1
4159	4164	4163	1
4159	4164	4168	1
4163	4164	4168	1
4164	4159	4167	1
4164	4163	4166	1
4172	4171	5434	1
4170	4169	4179	1
3587	3588	3595	1
3589	3588	3595	1
3595	10643	10636	1
3595	10643	10645	1
3587	3586	3597	1
3585	3586	3597	1
3588	3595	3596	1
3588	3595	10643	1
3586	3587	3588	1
3588	3587	3591	1
3588	3589	3590	1
3588	3589	3592	1
3586	3597	3598	1
3586	3597	3599	1
3586	3587	3591	1
3586	3585	3590	1
3586	3585	3593	1
3587	3588	3589	1
3585	3586	3587	1
3585	3590	3589	1
3589	3590	3594	1
3585	3590	3594	1
3590	3589	3592	1
3590	3585	3593	1
3596	3595	10643	1
3598	3597	3599	1
3347	3348	3355	1
3349	3348	3355	1
3355	9078	9072	1
3355	9078	9079	1
3347	3346	3357	1
3345	3346	3357	1
3348	3355	3356	1
3348	3355	9078	1
3346	3347	3348	1
3348	3347	3351	1
3348	3349	3350	1
3348	3349	3352	1
3346	3357	3358	1
3346	3357	3359	1
3346	3347	3351	1
3346	3345	3350	1
3346	3345	3353	1
3347	3348	3349	1
3345	3346	3347	1
3345	3350	3349	1
3349	3350	3354	1
3345	3350	3354	1
3350	3349	3352	1
3350	3345	3353	1
3356	3355	9078	1
3358	3357	3359	1
7584	7585	7592	1
7586	7585	7592	1
7592	7607	7600	1
7592	7607	7609	1
7584	7583	7594	1
7582	7583	7594	1
7594	5668	5661	1
7594	5668	5670	1
7585	7592	7593	1
7585	7592	7607	1
7585	7584	7583	1
7585	7584	7588	1
7585	7586	7587	1
7585	7586	7589	1
7583	7594	7595	1
7583	7594	5668	1
7583	7584	7588	1
7583	7582	7587	1
7583	7582	7590	1
7586	7585	7584	1
7584	7583	7582	1
7586	7587	7582	1
7586	7587	7591	1
7582	7587	7591	1
7587	7586	7589	1
7587	7582	7590	1
7593	7592	7607	1
7595	7594	5668	1
10459	10458	10469	1
10457	10458	10469	1
10469	10482	10475	1
10469	10482	10484	1
10459	10460	10467	1
10461	10460	10467	1
10467	6674	6667	1
10467	6674	6676	1
10458	10469	10470	1
10458	10469	10482	1
10458	10459	10460	1
10458	10459	10463	1
10458	10457	10462	1
10458	10457	10465	1
10460	10467	10468	1
10460	10467	6674	1
10460	10459	10463	1
10460	10461	10462	1
10460	10461	10464	1
10457	10458	10459	1
10459	10460	10461	1
10457	10462	10461	1
10457	10462	10466	1
10461	10462	10466	1
10462	10457	10465	1
10462	10461	10464	1
10470	10469	10482	1
10468	10467	6674	1
5382	5381	5392	1
5380	5381	5392	1
5392	5400	5394	1
5392	5400	5401	1
5382	5383	5390	1
5384	5383	5390	1
5390	10492	10486	1
5390	10492	10493	1
5381	5392	5393	1
5381	5392	5400	1
5381	5382	5383	1
5381	5382	5386	1
5381	5380	5385	1
5381	5380	5388	1
5383	5390	5391	1
5383	5390	10492	1
5383	5382	5386	1
5383	5384	5385	1
5383	5384	5387	1
5380	5381	5382	1
5382	5383	5384	1
5380	5385	5384	1
5380	5385	5389	1
5384	5385	5389	1
5385	5380	5388	1
5385	5384	5387	1
5393	5392	5400	1
5391	5390	10492	1
12157	12156	12167	1
12155	12156	12167	1
12167	9637	9627	1
12167	9637	9639	1
12157	12158	12165	1
12159	12158	12165	1
12165	5596	5586	1
12165	5596	5598	1
12156	12167	12168	1
12156	12167	9637	1
12156	12157	12158	1
12156	12157	12161	1
12156	12155	12160	1
12156	12155	12163	1
12158	12165	12166	1
12158	12165	5596	1
12158	12157	12161	1
12158	12159	12160	1
12158	12159	12162	1
12155	12156	12157	1
12157	12158	12159	1
12155	12160	12159	1
12155	12160	12164	1
12159	12160	12164	1
12160	12155	12163	1
12160	12159	12162	1
12168	12167	9637	1
12166	12165	5596	1
3839	3840	3841	1
3839	3840	3847	1
3839	3842	3843	1
3839	3842	3848	1
3839	3845	3846	1
3840	3841	3844	1
3840	3841	3851	1
3840	3839	3842	1
3840	3839	3845	1
3841	3840	3847	1
3841	3844	3843	1
3841	3844	3849	1
3841	3851	3853	1
3844	3841	3851	1
3842	3843	3844	1
3844	3843	3850	1
3843	3844	3849	1
3843	3842	3848	1
3843	3850	3852	1
3842	3843	3850	1
3842	3839	3845	1
291	294	293	1
291	294	299	1
289	290	291	1
291	290	297	1
291	301	303	1
291	301	304	1
292	293	294	1
294	293	300	1
290	291	294	1
294	291	301	1
293	294	299	1
289	292	293	1
293	292	298	1
293	300	302	1
292	293	300	1
290	289	292	1
292	289	295	1
289	292	298	1
289	290	297	1
289	295	296	1
290	289	295	1
290	291	301	1
301	304	305	1
303	301	304	1
320	321	322	1
320	321	328	1
320	323	324	1
320	323	329	1
320	326	327	1
321	322	325	1
321	322	332	1
321	320	323	1
321	320	326	1
322	321	328	1
322	325	324	1
322	325	330	1
322	332	334	1
322	332	335	1
325	322	332	1
323	324	325	1
325	324	331	1
324	325	330	1
324	323	329	1
324	331	333	1
323	324	331	1
323	320	326	1
332	335	336	1
334	332	335	1
3854	3857	3858	1
3854	3857	3863	1
3854	3855	3856	1
3854	3855	3862	1
3854	3860	3861	1
3857	3858	3859	1
3857	3858	3865	1
3855	3854	3857	1
3857	3854	3860	1
3858	3857	3863	1
3856	3859	3858	1
3858	3859	3864	1
3858	3865	3867	1
3859	3858	3865	1
3855	3856	3859	1
3859	3856	3866	1
3856	3859	3864	1
3856	3855	3862	1
3856	3866	3868	1
3855	3856	3866	1
3855	3854	3860	1
351	354	355	1
351	354	360	1
351	352	353	1
351	352	359	1
351	357	358	1
354	355	356	1
354	355	362	1
352	351	354	1
354	351	357	1
355	354	360	1
353	356	355	1
355	356	361	1
355	362	364	1
356	355	362	1
352	353	356	1
356	353	363	1
353	356	361	1
353	352	359	1
353	363	365	1
353	363	366	1
352	353	363	1
352	351	357	1
363	366	367	1
365	363	366	1
382	385	386	1
382	385	391	1
382	383	384	1
382	383	390	1
382	388	389	1
385	386	387	1
385	386	393	1
383	382	385	1
385	382	388	1
386	385	391	1
384	387	386	1
386	387	392	1
386	393	395	1
387	386	393	1
383	384	387	1
387	384	394	1
384	387	392	1
384	383	390	1
384	394	396	1
384	394	397	1
383	384	394	1
383	382	388	1
394	397	398	1
396	394	397	1
3883	3886	3887	1
3883	3886	3892	1
3883	3884	3885	1
3883	3884	3891	1
3883	3889	3890	1
3886	3887	3888	1
3886	3887	3894	1
3884	3883	3886	1
3886	3883	3889	1
3887	3886	3892	1
3885	3888	3887	1
3887	3888	3893	1
3887	3894	3896	1
3888	3887	3894	1
3884	3885	3888	1
3888	3885	3895	1
3885	3888	3893	1
3885	3884	3891	1
3885	3895	3897	1
3884	3885	3895	1
3884	3883	3889	1
3912	3915	3916	1
3912	3915	3921	1
3912	3913	3914	1
3912	3913	3920	1
3912	3918	3919	1
3915	3916	3917	1
3915	3916	3923	1
3913	3912	3915	1
3915	3912	3918	1
3916	3915	3921	1
3914	3917	3916	1
3916	3917	3922	1
3916	3923	3925	1
3917	3916	3923	1
3913	3914	3917	1
3917	3914	3924	1
3914	3917	3922	1
3914	3913	3920	1
3914	3924	3926	1
3913	3914	3924	1
3913	3912	3918	1
413	414	415	1
415	414	421	1
415	418	417	1
415	418	423	1
415	425	427	1
415	425	428	1
414	413	416	1
414	413	419	1
414	415	418	1
414	415	425	1
413	414	421	1
413	416	417	1
413	416	422	1
413	419	420	1
416	413	419	1
416	417	418	1
416	417	424	1
417	416	422	1
417	418	423	1
417	424	426	1
418	417	424	1
418	415	425	1
425	428	429	1
427	425	428	1
3941	3944	3945	1
3941	3944	3950	1
3941	3942	3943	1
3941	3942	3949	1
3941	3947	3948	1
3944	3945	3946	1
3944	3945	3952	1
3942	3941	3944	1
3944	3941	3947	1
3945	3944	3950	1
3943	3946	3945	1
3945	3946	3951	1
3945	3952	3954	1
3946	3945	3952	1
3942	3943	3946	1
3946	3943	3953	1
3943	3946	3951	1
3943	3942	3949	1
3943	3953	3955	1
3942	3943	3953	1
3942	3941	3947	1
3970	3971	3972	1
3970	3971	3978	1
3970	3973	3974	1
3970	3973	3979	1
3970	3976	3977	1
3971	3972	3975	1
3971	3972	3982	1
3971	3970	3973	1
3971	3970	3976	1
3972	3971	3978	1
3972	3975	3974	1
3972	3975	3980	1
3972	3982	3984	1
3975	3972	3982	1
3973	3974	3975	1
3975	3974	3981	1
3974	3975	3980	1
3974	3973	3979	1
3974	3981	3983	1
3973	3974	3981	1
3973	3970	3976	1
3999	4002	4003	1
3999	4002	4008	1
3999	4000	4001	1
3999	4000	4007	1
3999	4005	4006	1
4002	4003	4004	1
4002	4003	4010	1
4002	3999	4000	1
4002	3999	4005	1
4003	4002	4008	1
4003	4004	4001	1
4003	4004	4009	1
4003	4010	4012	1
4004	4003	4010	1
4000	4001	4004	1
4004	4001	4011	1
4001	4004	4009	1
4001	4000	4007	1
4001	4011	4013	1
4000	4001	4011	1
4000	3999	4005	1
444	445	446	1
446	445	452	1
446	449	448	1
446	449	454	1
446	456	458	1
446	456	459	1
445	444	447	1
445	444	450	1
445	446	449	1
445	446	456	1
444	445	452	1
444	447	448	1
444	447	453	1
444	450	451	1
447	444	450	1
447	448	449	1
447	448	455	1
448	447	453	1
448	449	454	1
448	455	457	1
449	448	455	1
449	446	456	1
456	459	460	1
458	456	459	1
4028	4031	4032	1
4028	4031	4037	1
4028	4029	4030	1
4028	4029	4036	1
4028	4034	4035	1
4031	4032	4033	1
4031	4032	4039	1
4031	4028	4029	1
4031	4028	4034	1
4032	4031	4037	1
4032	4033	4030	1
4032	4033	4038	1
4032	4039	4041	1
4033	4032	4039	1
4029	4030	4033	1
4033	4030	4040	1
4030	4033	4038	1
4030	4029	4036	1
4030	4040	4042	1
4029	4030	4040	1
4029	4028	4034	1
4057	4058	4059	1
4057	4058	4065	1
4057	4060	4061	1
4057	4060	4066	1
4057	4063	4064	1
4058	4059	4062	1
4058	4059	4069	1
4058	4057	4060	1
4058	4057	4063	1
4059	4058	4065	1
4059	4062	4061	1
4059	4062	4067	1
4059	4069	4071	1
4062	4059	4069	1
4060	4061	4062	1
4062	4061	4068	1
4061	4062	4067	1
4061	4060	4066	1
4061	4068	4070	1
4060	4061	4068	1
4060	4057	4063	1
4086	4087	4088	1
4086	4087	4094	1
4086	4089	4090	1
4086	4089	4095	1
4086	4092	4093	1
4087	4088	4091	1
4087	4088	4098	1
4087	4086	4089	1
4087	4086	4092	1
4088	4087	4094	1
4088	4091	4090	1
4088	4091	4096	1
4088	4098	4100	1
4091	4088	4098	1
4089	4090	4091	1
4091	4090	4097	1
4090	4091	4096	1
4090	4089	4095	1
4090	4097	4099	1
4089	4090	4097	1
4089	4086	4092	1
8	9	4	1
4	9	18	1
6	5	4	1
4	5	16	1
4	2	3	1
4	2	1	1
7	8	9	1
9	8	10	1
9	4	5	1
9	4	2	1
8	9	18	1
8	7	6	1
8	7	17	1
8	10	11	1
7	8	10	1
7	6	5	1
7	6	12	1
6	7	17	1
6	5	16	1
6	12	13	1
6	12	14	1
5	6	12	1
5	4	2	1
2	1	15	1
13	12	14	1
3	2	1	1
4115	4116	4117	1
4115	4116	4123	1
4115	4118	4119	1
4115	4118	4124	1
4115	4121	4122	1
4116	4117	4120	1
4116	4117	4127	1
4116	4115	4118	1
4116	4115	4121	1
4117	4116	4123	1
4117	4120	4119	1
4117	4120	4125	1
4117	4127	4129	1
4120	4117	4127	1
4118	4119	4120	1
4120	4119	4126	1
4119	4120	4125	1
4119	4118	4124	1
4119	4126	4128	1
4118	4119	4126	1
4118	4115	4121	1
475	476	477	1
475	476	483	1
475	478	479	1
475	478	484	1
475	481	482	1
476	477	480	1
476	477	487	1
476	475	478	1
476	475	481	1
477	476	483	1
477	480	479	1
477	480	485	1
477	487	489	1
477	487	490	1
480	477	487	1
478	479	480	1
480	479	486	1
479	480	485	1
479	478	484	1
479	486	488	1
478	479	486	1
478	475	481	1
487	490	491	1
489	487	490	1
4144	4145	4146	1
4144	4145	4152	1
4144	4147	4148	1
4144	4147	4153	1
4144	4150	4151	1
4145	4146	4149	1
4145	4146	4156	1
4145	4144	4147	1
4145	4144	4150	1
4146	4145	4152	1
4146	4149	4148	1
4146	4149	4154	1
4146	4156	4158	1
4149	4146	4156	1
4147	4148	4149	1
4149	4148	4155	1
4148	4149	4154	1
4148	4147	4153	1
4148	4155	4157	1
4147	4148	4155	1
4147	4144	4150	1
522	527	526	1
522	527	535	1
522	523	524	1
522	523	533	1
522	520	521	1
527	526	525	1
527	526	528	1
523	522	527	1
527	522	520	1
526	527	535	1
524	525	526	1
526	525	534	1
526	528	529	1
525	526	528	1
523	524	525	1
525	524	530	1
524	525	534	1
524	523	533	1
524	530	531	1
524	530	532	1
523	524	530	1
523	522	520	1
531	530	532	1
4173	4174	4175	1
4173	4174	4181	1
4173	4176	4177	1
4173	4176	4182	1
4173	4179	4180	1
4174	4175	4178	1
4174	4175	4185	1
4174	4173	4176	1
4174	4173	4179	1
4175	4174	4181	1
4175	4178	4177	1
4175	4178	4183	1
4175	4185	4187	1
4178	4175	4185	1
4176	4177	4178	1
4178	4177	4184	1
4177	4178	4183	1
4177	4176	4182	1
4177	4184	4186	1
4176	4177	4184	1
4176	4173	4179	1
4202	4203	4204	1
4202	4203	4210	1
4202	4205	4206	1
4202	4205	4211	1
4202	4208	4209	1
4203	4204	4207	1
4203	4204	4214	1
4203	4202	4205	1
4203	4202	4208	1
4204	4203	4210	1
4204	4207	4206	1
4204	4207	4212	1
4204	4214	4216	1
4207	4204	4214	1
4205	4206	4207	1
4207	4206	4213	1
4206	4207	4212	1
4206	4205	4211	1
4206	4213	4215	1
4205	4206	4213	1
4205	4202	4208	1
4231	4234	4235	1
4231	4234	4240	1
4231	4232	4233	1
4231	4232	4239	1
4231	4237	4238	1
4234	4235	4236	1
4234	4235	4242	1
4234	4231	4232	1
4234	4231	4237	1
4235	4234	4240	1
4235	4236	4233	1
4235	4236	4241	1
4235	4242	4244	1
4236	4235	4242	1
4232	4233	4236	1
4236	4233	4243	1
4233	4236	4241	1
4233	4232	4239	1
4233	4243	4245	1
4232	4233	4243	1
4232	4231	4237	1
4260	4261	4262	1
4260	4261	4268	1
4260	4263	4264	1
4260	4263	4269	1
4260	4266	4267	1
4261	4262	4265	1
4261	4262	4272	1
4263	4260	4261	1
4261	4260	4266	1
4262	4261	4268	1
4264	4265	4262	1
4262	4265	4270	1
4262	4272	4274	1
4265	4262	4272	1
4263	4264	4265	1
4265	4264	4271	1
4264	4265	4270	1
4264	4263	4269	1
4264	4271	4273	1
4263	4264	4271	1
4263	4260	4266	1
536	537	538	1
536	537	544	1
536	539	540	1
536	539	545	1
536	542	543	1
537	538	541	1
537	538	548	1
537	536	539	1
537	536	542	1
538	537	544	1
538	541	540	1
538	541	546	1
538	548	550	1
538	548	551	1
541	538	548	1
539	540	541	1
541	540	547	1
540	541	546	1
540	539	545	1
540	547	549	1
539	540	547	1
539	536	542	1
548	551	552	1
550	548	551	1
567	568	569	1
569	568	575	1
569	572	571	1
569	572	577	1
569	579	581	1
569	579	582	1
568	567	570	1
568	567	573	1
568	569	572	1
568	569	579	1
567	568	575	1
567	570	571	1
567	570	576	1
567	573	574	1
570	567	573	1
570	571	572	1
570	571	578	1
571	570	576	1
571	572	577	1
571	578	580	1
572	571	578	1
572	569	579	1
579	582	583	1
581	579	582	1
4275	4278	4279	1
4275	4278	4284	1
4275	4276	4277	1
4275	4276	4283	1
4275	4281	4282	1
4278	4279	4280	1
4278	4279	4286	1
4276	4275	4278	1
4278	4275	4281	1
4279	4278	4284	1
4277	4280	4279	1
4279	4280	4285	1
4279	4286	4288	1
4280	4279	4286	1
4276	4277	4280	1
4280	4277	4287	1
4277	4280	4285	1
4277	4276	4283	1
4277	4287	4289	1
4276	4277	4287	1
4276	4275	4281	1
4306	4309	4308	1
4306	4309	4314	1
4304	4305	4306	1
4306	4305	4312	1
4306	4316	4318	1
4307	4308	4309	1
4309	4308	4315	1
4305	4306	4309	1
4309	4306	4316	1
4308	4309	4314	1
4304	4307	4308	1
4308	4307	4313	1
4308	4315	4317	1
4307	4308	4315	1
4305	4304	4307	1
4307	4304	4310	1
4304	4307	4313	1
4304	4305	4312	1
4304	4310	4311	1
4305	4304	4310	1
4305	4306	4316	1
598	599	600	1
598	599	606	1
598	601	602	1
598	601	607	1
598	604	605	1
599	600	603	1
599	600	610	1
599	598	601	1
599	598	604	1
600	599	606	1
600	603	602	1
600	603	608	1
600	610	612	1
600	610	613	1
603	600	610	1
601	602	603	1
603	602	609	1
602	603	608	1
602	601	607	1
602	609	611	1
601	602	609	1
601	598	604	1
610	613	614	1
612	610	613	1
4333	4336	4337	1
4333	4336	4342	1
4333	4334	4335	1
4333	4334	4341	1
4333	4339	4340	1
4336	4337	4338	1
4336	4337	4344	1
4334	4333	4336	1
4336	4333	4339	1
4337	4336	4342	1
4335	4338	4337	1
4337	4338	4343	1
4337	4344	4346	1
4338	4337	4344	1
4334	4335	4338	1
4338	4335	4345	1
4335	4338	4343	1
4335	4334	4341	1
4335	4345	4347	1
4334	4335	4345	1
4334	4333	4339	1
629	630	631	1
629	630	637	1
629	632	633	1
629	632	638	1
629	635	636	1
630	631	634	1
630	631	641	1
630	629	632	1
630	629	635	1
631	630	637	1
631	634	633	1
631	634	639	1
631	641	643	1
631	641	644	1
634	631	641	1
632	633	634	1
634	633	640	1
633	634	639	1
633	632	638	1
633	640	642	1
632	633	640	1
632	629	635	1
641	644	645	1
643	641	644	1
4362	4365	4366	1
4362	4365	4371	1
4362	4363	4364	1
4362	4363	4370	1
4362	4368	4369	1
4365	4366	4367	1
4365	4366	4373	1
4363	4362	4365	1
4365	4362	4368	1
4366	4365	4371	1
4364	4367	4366	1
4366	4367	4372	1
4366	4373	4375	1
4367	4366	4373	1
4363	4364	4367	1
4367	4364	4374	1
4364	4367	4372	1
4364	4363	4370	1
4364	4374	4376	1
4363	4364	4374	1
4363	4362	4368	1
4377	4378	4379	1
4377	4378	4385	1
4377	4380	4381	1
4377	4380	4386	1
4377	4383	4384	1
4378	4379	4382	1
4378	4379	4389	1
4378	4377	4380	1
4378	4377	4383	1
4379	4378	4385	1
4379	4382	4381	1
4379	4382	4387	1
4379	4389	4391	1
4382	4379	4389	1
4380	4381	4382	1
4382	4381	4388	1
4381	4382	4387	1
4381	4380	4386	1
4381	4388	4390	1
4380	4381	4388	1
4380	4377	4383	1
4406	4407	4408	1
4406	4407	4414	1
4406	4409	4410	1
4406	4409	4415	1
4406	4412	4413	1
4407	4408	4411	1
4407	4408	4418	1
4407	4406	4409	1
4407	4406	4412	1
4408	4407	4414	1
4408	4411	4410	1
4408	4411	4416	1
4408	4418	4420	1
4411	4408	4418	1
4409	4410	4411	1
4411	4410	4417	1
4410	4411	4416	1
4410	4409	4415	1
4410	4417	4419	1
4409	4410	4417	1
4409	4406	4412	1
4435	4436	4437	1
4435	4436	4443	1
4435	4438	4439	1
4435	4438	4444	1
4435	4441	4442	1
4436	4437	4440	1
4436	4437	4447	1
4438	4435	4436	1
4436	4435	4441	1
4437	4436	4443	1
4439	4440	4437	1
4437	4440	4445	1
4437	4447	4449	1
4440	4437	4447	1
4438	4439	4440	1
4440	4439	4446	1
4439	4440	4445	1
4439	4438	4444	1
4439	4446	4448	1
4438	4439	4446	1
4438	4435	4441	1
4464	4467	4468	1
4464	4467	4473	1
4464	4465	4466	1
4464	4465	4472	1
4464	4470	4471	1
4467	4468	4469	1
4467	4468	4475	1
4467	4464	4465	1
4467	4464	4470	1
4468	4467	4473	1
4468	4469	4466	1
4468	4469	4474	1
4468	4475	4477	1
4469	4468	4475	1
4465	4466	4469	1
4469	4466	4476	1
4466	4469	4474	1
4466	4465	4472	1
4466	4476	4478	1
4465	4466	4476	1
4465	4464	4470	1
660	661	662	1
662	661	668	1
662	665	664	1
662	665	670	1
662	672	674	1
662	672	675	1
661	660	663	1
661	660	666	1
661	662	665	1
661	662	672	1
660	661	668	1
660	663	664	1
660	663	669	1
660	666	667	1
663	660	666	1
663	664	665	1
663	664	671	1
664	663	669	1
664	665	670	1
664	671	673	1
665	664	671	1
665	662	672	1
672	675	676	1
674	672	675	1
4493	4494	4495	1
4493	4494	4501	1
4493	4496	4497	1
4493	4496	4502	1
4493	4499	4500	1
4494	4495	4498	1
4494	4495	4505	1
4494	4493	4496	1
4494	4493	4499	1
4495	4494	4501	1
4495	4498	4497	1
4495	4498	4503	1
4495	4505	4507	1
4498	4495	4505	1
4496	4497	4498	1
4498	4497	4504	1
4497	4498	4503	1
4497	4496	4502	1
4497	4504	4506	1
4496	4497	4504	1
4496	4493	4499	1
691	694	695	1
691	694	700	1
691	692	693	1
691	692	699	1
691	697	698	1
694	695	696	1
694	695	702	1
692	691	694	1
694	691	697	1
695	694	700	1
693	696	695	1
695	696	701	1
695	702	704	1
696	695	702	1
692	693	696	1
696	693	703	1
693	696	701	1
693	692	699	1
693	703	705	1
693	703	706	1
692	693	703	1
692	691	697	1
703	706	707	1
705	703	706	1
4522	4525	4526	1
4522	4525	4531	1
4522	4523	4524	1
4522	4523	4530	1
4522	4528	4529	1
4525	4526	4527	1
4525	4526	4533	1
4523	4522	4525	1
4525	4522	4528	1
4526	4525	4531	1
4524	4527	4526	1
4526	4527	4532	1
4526	4533	4535	1
4527	4526	4533	1
4523	4524	4527	1
4527	4524	4534	1
4524	4527	4532	1
4524	4523	4530	1
4524	4534	4536	1
4523	4524	4534	1
4523	4522	4528	1
4551	4554	4555	1
4551	4554	4560	1
4551	4552	4553	1
4551	4552	4559	1
4551	4557	4558	1
4554	4555	4556	1
4554	4555	4562	1
4552	4551	4554	1
4554	4551	4557	1
4555	4554	4560	1
4553	4556	4555	1
4555	4556	4561	1
4555	4562	4564	1
4556	4555	4562	1
4552	4553	4556	1
4556	4553	4563	1
4553	4556	4561	1
4553	4552	4559	1
4553	4563	4565	1
4552	4553	4563	1
4552	4551	4557	1
4580	4583	4584	1
4580	4583	4589	1
4580	4581	4582	1
4580	4581	4588	1
4580	4586	4587	1
4583	4584	4585	1
4583	4584	4591	1
4581	4580	4583	1
4583	4580	4586	1
4584	4583	4589	1
4582	4585	4584	1
4584	4585	4590	1
4584	4591	4593	1
4585	4584	4591	1
4581	4582	4585	1
4585	4582	4592	1
4582	4585	4590	1
4582	4581	4588	1
4582	4592	4594	1
4581	4582	4592	1
4581	4580	4586	1
4609	4610	4611	1
4609	4610	4617	1
4609	4612	4613	1
4609	4612	4618	1
4609	4615	4616	1
4610	4611	4614	1
4610	4611	4621	1
4610	4609	4612	1
4610	4609	4615	1
4611	4610	4617	1
4611	4614	4613	1
4611	4614	4619	1
4611	4621	4623	1
4614	4611	4621	1
4612	4613	4614	1
4614	4613	4620	1
4613	4614	4619	1
4613	4612	4618	1
4613	4620	4622	1
4612	4613	4620	1
4612	4609	4615	1
722	725	726	1
722	725	731	1
722	723	724	1
722	723	730	1
722	728	729	1
725	726	727	1
725	726	733	1
723	722	725	1
725	722	728	1
726	725	731	1
724	727	726	1
726	727	732	1
726	733	735	1
727	726	733	1
723	724	727	1
727	724	734	1
724	727	732	1
724	723	730	1
724	734	736	1
724	734	737	1
723	724	734	1
723	722	728	1
734	737	738	1
736	734	737	1
753	756	757	1
753	756	762	1
753	754	755	1
753	754	761	1
753	759	760	1
756	757	758	1
756	757	764	1
754	753	756	1
756	753	759	1
757	756	762	1
755	758	757	1
757	758	763	1
757	764	766	1
758	757	764	1
754	755	758	1
758	755	765	1
755	758	763	1
755	754	761	1
755	765	767	1
755	765	768	1
754	755	765	1
754	753	759	1
765	768	769	1
767	765	768	1
784	785	786	1
784	785	792	1
784	787	788	1
784	787	793	1
784	790	791	1
785	786	789	1
785	786	796	1
785	784	787	1
785	784	790	1
786	785	792	1
786	789	788	1
786	789	794	1
786	796	798	1
786	796	799	1
789	786	796	1
787	788	789	1
789	788	795	1
788	789	794	1
788	787	793	1
788	795	797	1
787	788	795	1
787	784	790	1
796	799	800	1
798	796	799	1
4638	4639	4640	1
4640	4639	4646	1
4640	4643	4642	1
4640	4643	4648	1
4640	4650	4652	1
4639	4638	4641	1
4639	4638	4644	1
4639	4640	4643	1
4639	4640	4650	1
4638	4639	4646	1
4638	4641	4642	1
4638	4641	4647	1
4638	4644	4645	1
4641	4638	4644	1
4641	4642	4643	1
4641	4642	4649	1
4642	4641	4647	1
4642	4643	4648	1
4642	4649	4651	1
4643	4642	4649	1
4643	4640	4650	1
4671	4672	4669	1
4671	4672	4677	1
4671	4670	4667	1
4671	4670	4676	1
4671	4678	4680	1
4672	4669	4668	1
4672	4669	4679	1
4670	4671	4672	1
4672	4671	4678	1
4669	4672	4677	1
4667	4668	4669	1
4669	4668	4675	1
4669	4679	4681	1
4668	4669	4679	1
4670	4667	4668	1
4668	4667	4673	1
4667	4668	4675	1
4667	4670	4676	1
4667	4673	4674	1
4670	4667	4673	1
4670	4671	4678	1
4696	4697	4698	1
4696	4697	4704	1
4696	4699	4700	1
4696	4699	4705	1
4696	4702	4703	1
4697	4698	4701	1
4697	4698	4708	1
4699	4696	4697	1
4697	4696	4702	1
4698	4697	4704	1
4700	4701	4698	1
4698	4701	4706	1
4698	4708	4710	1
4701	4698	4708	1
4699	4700	4701	1
4701	4700	4707	1
4700	4701	4706	1
4700	4699	4705	1
4700	4707	4709	1
4699	4700	4707	1
4699	4696	4702	1
38	37	36	1
38	37	48	1
40	39	38	1
38	39	49	1
38	44	45	1
38	44	46	1
41	36	37	1
37	36	34	1
39	38	37	1
37	38	44	1
36	37	48	1
40	41	36	1
36	41	50	1
36	34	35	1
36	34	33	1
41	36	34	1
39	40	41	1
41	40	42	1
40	41	50	1
40	39	49	1
40	42	43	1
39	40	42	1
39	38	44	1
34	33	47	1
45	44	46	1
35	34	33	1
4725	4726	4727	1
4725	4726	4733	1
4725	4728	4729	1
4725	4728	4734	1
4725	4731	4732	1
4726	4727	4730	1
4726	4727	4737	1
4726	4725	4728	1
4726	4725	4731	1
4727	4726	4733	1
4727	4730	4729	1
4727	4730	4735	1
4727	4737	4739	1
4730	4727	4737	1
4728	4729	4730	1
4730	4729	4736	1
4729	4730	4735	1
4729	4728	4734	1
4729	4736	4738	1
4728	4729	4736	1
4728	4725	4731	1
4754	4757	4758	1
4754	4757	4763	1
4754	4755	4756	1
4754	4755	4762	1
4754	4760	4761	1
4757	4758	4759	1
4757	4758	4765	1
4755	4754	4757	1
4757	4754	4760	1
4758	4757	4763	1
4756	4759	4758	1
4758	4759	4764	1
4758	4765	4767	1
4759	4758	4765	1
4755	4756	4759	1
4759	4756	4766	1
4756	4759	4764	1
4756	4755	4762	1
4756	4766	4768	1
4755	4756	4766	1
4755	4754	4760	1
815	816	817	1
817	816	823	1
817	820	819	1
817	820	825	1
817	827	829	1
817	827	830	1
816	815	818	1
816	815	821	1
816	817	820	1
816	817	827	1
815	816	823	1
815	818	819	1
815	818	824	1
815	821	822	1
818	815	821	1
818	819	820	1
818	819	826	1
819	818	824	1
819	820	825	1
819	826	828	1
820	819	826	1
820	817	827	1
827	830	831	1
829	827	830	1
4783	4786	4787	1
4783	4786	4792	1
4783	4784	4785	1
4783	4784	4791	1
4783	4789	4790	1
4786	4787	4788	1
4786	4787	4794	1
4784	4783	4786	1
4786	4783	4789	1
4787	4786	4792	1
4785	4788	4787	1
4787	4788	4793	1
4787	4794	4796	1
4788	4787	4794	1
4784	4785	4788	1
4788	4785	4795	1
4785	4788	4793	1
4785	4784	4791	1
4785	4795	4797	1
4784	4785	4795	1
4784	4783	4789	1
4812	4815	4816	1
4812	4815	4821	1
4812	4813	4814	1
4812	4813	4820	1
4812	4818	4819	1
4815	4816	4817	1
4815	4816	4823	1
4813	4812	4815	1
4815	4812	4818	1
4816	4815	4821	1
4814	4817	4816	1
4816	4817	4822	1
4816	4823	4825	1
4817	4816	4823	1
4813	4814	4817	1
4817	4814	4824	1
4814	4817	4822	1
4814	4813	4820	1
4814	4824	4826	1
4813	4814	4824	1
4813	4812	4818	1
848	851	850	1
848	851	856	1
846	847	848	1
848	847	854	1
848	858	860	1
848	858	861	1
849	850	851	1
851	850	857	1
847	848	851	1
851	848	858	1
850	851	856	1
846	849	850	1
850	849	855	1
850	857	859	1
849	850	857	1
847	846	849	1
849	846	852	1
846	849	855	1
846	847	854	1
846	852	853	1
847	846	852	1
847	848	858	1
858	861	862	1
860	858	861	1
4841	4844	4845	1
4841	4844	4850	1
4841	4842	4843	1
4841	4842	4849	1
4841	4847	4848	1
4844	4845	4846	1
4844	4845	4852	1
4842	4841	4844	1
4844	4841	4847	1
4845	4844	4850	1
4843	4846	4845	1
4845	4846	4851	1
4845	4852	4854	1
4846	4845	4852	1
4842	4843	4846	1
4846	4843	4853	1
4843	4846	4851	1
4843	4842	4849	1
4843	4853	4855	1
4842	4843	4853	1
4842	4841	4847	1
4856	4859	4860	1
4856	4859	4865	1
4856	4857	4858	1
4856	4857	4864	1
4856	4862	4863	1
4859	4860	4861	1
4859	4860	4867	1
4857	4856	4859	1
4859	4856	4862	1
4860	4859	4865	1
4858	4861	4860	1
4860	4861	4866	1
4860	4867	4869	1
4861	4860	4867	1
4857	4858	4861	1
4861	4858	4868	1
4858	4861	4866	1
4858	4857	4864	1
4858	4868	4870	1
4857	4858	4868	1
4857	4856	4862	1
4885	4886	4887	1
4885	4886	4893	1
4885	4888	4889	1
4885	4888	4894	1
4885	4891	4892	1
4886	4887	4890	1
4886	4887	4897	1
4888	4885	4886	1
4886	4885	4891	1
4887	4886	4893	1
4889	4890	4887	1
4887	4890	4895	1
4887	4897	4899	1
4890	4887	4897	1
4888	4889	4890	1
4890	4889	4896	1
4889	4890	4895	1
4889	4888	4894	1
4889	4896	4898	1
4888	4889	4896	1
4888	4885	4891	1
4914	4917	4918	1
4914	4917	4923	1
4914	4915	4916	1
4914	4915	4922	1
4914	4920	4921	1
4917	4918	4919	1
4917	4918	4925	1
4917	4914	4915	1
4917	4914	4920	1
4918	4917	4923	1
4918	4919	4916	1
4918	4919	4924	1
4918	4925	4927	1
4919	4918	4925	1
4915	4916	4919	1
4919	4916	4926	1
4916	4919	4924	1
4916	4915	4922	1
4916	4926	4928	1
4915	4916	4926	1
4915	4914	4920	1
4943	4944	4945	1
4943	4944	4951	1
4943	4946	4947	1
4943	4946	4952	1
4943	4949	4950	1
4944	4945	4948	1
4944	4945	4955	1
4944	4943	4946	1
4944	4943	4949	1
4945	4944	4951	1
4945	4948	4947	1
4945	4948	4953	1
4945	4955	4957	1
4948	4945	4955	1
4946	4947	4948	1
4948	4947	4954	1
4947	4948	4953	1
4947	4946	4952	1
4947	4954	4956	1
4946	4947	4954	1
4946	4943	4949	1
893	898	897	1
893	898	906	1
893	894	895	1
893	894	904	1
893	891	892	1
898	897	896	1
898	897	899	1
894	893	898	1
898	893	891	1
897	898	906	1
895	896	897	1
897	896	905	1
897	899	900	1
896	897	899	1
894	895	896	1
896	895	901	1
895	896	905	1
895	894	904	1
895	901	902	1
895	901	903	1
894	895	901	1
894	893	891	1
902	901	903	1
4972	4973	4974	1
4972	4973	4980	1
4972	4975	4976	1
4972	4975	4981	1
4972	4978	4979	1
4973	4974	4977	1
4973	4974	4984	1
4973	4972	4975	1
4973	4972	4978	1
4974	4973	4980	1
4974	4977	4976	1
4974	4977	4982	1
4974	4984	4986	1
4977	4974	4984	1
4975	4976	4977	1
4977	4976	4983	1
4976	4977	4982	1
4976	4975	4981	1
4976	4983	4985	1
4975	4976	4983	1
4975	4972	4978	1
907	910	911	1
907	910	916	1
907	908	909	1
907	908	915	1
907	913	914	1
910	911	912	1
910	911	918	1
908	907	910	1
910	907	913	1
911	910	916	1
909	912	911	1
911	912	917	1
911	918	920	1
912	911	918	1
908	909	912	1
912	909	919	1
909	912	917	1
909	908	915	1
909	919	921	1
909	919	922	1
908	909	919	1
908	907	913	1
919	922	923	1
921	919	922	1
4987	4988	4989	1
4987	4988	4995	1
4987	4990	4991	1
4987	4990	4996	1
4987	4993	4994	1
4988	4989	4992	1
4988	4989	4999	1
4988	4987	4990	1
4988	4987	4993	1
4989	4988	4995	1
4989	4992	4991	1
4989	4992	4997	1
4989	4999	5001	1
4992	4989	4999	1
4990	4991	4992	1
4992	4991	4998	1
4991	4992	4997	1
4991	4990	4996	1
4991	4998	5000	1
4990	4991	4998	1
4990	4987	4993	1
5016	5017	5018	1
5016	5017	5024	1
5016	5019	5020	1
5016	5019	5025	1
5016	5022	5023	1
5017	5018	5021	1
5017	5018	5028	1
5017	5016	5019	1
5017	5016	5022	1
5018	5017	5024	1
5018	5021	5020	1
5018	5021	5026	1
5018	5028	5030	1
5021	5018	5028	1
5019	5020	5021	1
5021	5020	5027	1
5020	5021	5026	1
5020	5019	5025	1
5020	5027	5029	1
5019	5020	5027	1
5019	5016	5022	1
938	939	940	1
938	939	946	1
938	941	942	1
938	941	947	1
938	944	945	1
939	940	943	1
939	940	950	1
939	938	941	1
939	938	944	1
940	939	946	1
940	943	942	1
940	943	948	1
940	950	952	1
940	950	953	1
943	940	950	1
941	942	943	1
943	942	949	1
942	943	948	1
942	941	947	1
942	949	951	1
941	942	949	1
941	938	944	1
950	953	954	1
952	950	953	1
5045	5046	5047	1
5045	5046	5053	1
5045	5048	5049	1
5045	5048	5054	1
5045	5051	5052	1
5046	5047	5050	1
5046	5047	5057	1
5046	5045	5048	1
5046	5045	5051	1
5047	5046	5053	1
5047	5050	5049	1
5047	5050	5055	1
5047	5057	5059	1
5050	5047	5057	1
5048	5049	5050	1
5050	5049	5056	1
5049	5050	5055	1
5049	5048	5054	1
5049	5056	5058	1
5048	5049	5056	1
5048	5045	5051	1
5060	5061	5062	1
5060	5061	5068	1
5060	5063	5064	1
5060	5063	5069	1
5060	5066	5067	1
5061	5062	5065	1
5061	5062	5072	1
5061	5060	5063	1
5061	5060	5066	1
5062	5061	5068	1
5062	5065	5064	1
5062	5065	5070	1
5062	5072	5074	1
5065	5062	5072	1
5063	5064	5065	1
5065	5064	5071	1
5064	5065	5070	1
5064	5063	5069	1
5064	5071	5073	1
5063	5064	5071	1
5063	5060	5066	1
5089	5090	5091	1
5089	5090	5097	1
5089	5092	5093	1
5089	5092	5098	1
5089	5095	5096	1
5090	5091	5094	1
5090	5091	5101	1
5092	5089	5090	1
5090	5089	5095	1
5091	5090	5097	1
5093	5094	5091	1
5091	5094	5099	1
5091	5101	5103	1
5094	5091	5101	1
5092	5093	5094	1
5094	5093	5100	1
5093	5094	5099	1
5093	5092	5098	1
5093	5100	5102	1
5092	5093	5100	1
5092	5089	5095	1
5118	5119	5120	1
5118	5119	5126	1
5118	5121	5122	1
5118	5121	5127	1
5118	5124	5125	1
5119	5120	5123	1
5119	5120	5130	1
5121	5118	5119	1
5119	5118	5124	1
5120	5119	5126	1
5122	5123	5120	1
5120	5123	5128	1
5120	5130	5132	1
5123	5120	5130	1
5121	5122	5123	1
5123	5122	5129	1
5122	5123	5128	1
5122	5121	5127	1
5122	5129	5131	1
5121	5122	5129	1
5121	5118	5124	1
5147	5150	5151	1
5147	5150	5156	1
5147	5148	5149	1
5147	5148	5155	1
5147	5153	5154	1
5150	5151	5152	1
5150	5151	5158	1
5148	5147	5150	1
5150	5147	5153	1
5151	5150	5156	1
5149	5152	5151	1
5151	5152	5157	1
5151	5158	5160	1
5152	5151	5158	1
5148	5149	5152	1
5152	5149	5159	1
5149	5152	5157	1
5149	5148	5155	1
5149	5159	5161	1
5148	5149	5159	1
5148	5147	5153	1
5176	5179	5180	1
5176	5179	5185	1
5176	5177	5178	1
5176	5177	5184	1
5176	5182	5183	1
5179	5180	5181	1
5179	5180	5187	1
5177	5176	5179	1
5179	5176	5182	1
5180	5179	5185	1
5178	5181	5180	1
5180	5181	5186	1
5180	5187	5189	1
5181	5180	5187	1
5177	5178	5181	1
5181	5178	5188	1
5178	5181	5186	1
5178	5177	5184	1
5178	5188	5190	1
5177	5178	5188	1
5177	5176	5182	1
969	972	973	1
969	972	978	1
969	970	971	1
969	970	977	1
969	975	976	1
972	973	974	1
972	973	980	1
970	969	972	1
972	969	975	1
973	972	978	1
971	974	973	1
973	974	979	1
973	980	982	1
974	973	980	1
970	971	974	1
974	971	981	1
971	974	979	1
971	970	977	1
971	981	983	1
971	981	984	1
970	971	981	1
970	969	975	1
981	984	985	1
983	981	984	1
1000	1001	1002	1
1000	1001	1008	1
1000	1003	1004	1
1000	1003	1009	1
1000	1006	1007	1
1001	1002	1005	1
1001	1002	1012	1
1001	1000	1003	1
1001	1000	1006	1
1002	1001	1008	1
1002	1005	1004	1
1002	1005	1010	1
1002	1012	1014	1
1002	1012	1015	1
1005	1002	1012	1
1003	1004	1005	1
1005	1004	1011	1
1004	1005	1010	1
1004	1003	1009	1
1004	1011	1013	1
1003	1004	1011	1
1003	1000	1006	1
1012	1015	1016	1
1014	1012	1015	1
5205	5208	5209	1
5205	5208	5214	1
5205	5206	5207	1
5205	5206	5213	1
5205	5211	5212	1
5208	5209	5210	1
5208	5209	5216	1
5206	5205	5208	1
5208	5205	5211	1
5209	5208	5214	1
5207	5210	5209	1
5209	5210	5215	1
5209	5216	5218	1
5210	5209	5216	1
5206	5207	5210	1
5210	5207	5217	1
5207	5210	5215	1
5207	5206	5213	1
5207	5217	5219	1
5206	5207	5217	1
5206	5205	5211	1
5234	5237	5238	1
5234	5237	5243	1
5234	5235	5236	1
5234	5235	5242	1
5234	5240	5241	1
5237	5238	5239	1
5237	5238	5245	1
5235	5234	5237	1
5237	5234	5240	1
5238	5237	5243	1
5236	5239	5238	1
5238	5239	5244	1
5238	5245	5247	1
5239	5238	5245	1
5235	5236	5239	1
5239	5236	5246	1
5236	5239	5244	1
5236	5235	5242	1
5236	5246	5248	1
5235	5236	5246	1
5235	5234	5240	1
5263	5264	5265	1
5263	5264	5271	1
5263	5266	5267	1
5263	5266	5272	1
5263	5269	5270	1
5264	5265	5268	1
5264	5265	5275	1
5264	5263	5266	1
5264	5263	5269	1
5265	5264	5271	1
5265	5268	5267	1
5265	5268	5273	1
5265	5275	5277	1
5268	5265	5275	1
5266	5267	5268	1
5268	5267	5274	1
5267	5268	5273	1
5267	5266	5272	1
5267	5274	5276	1
5266	5267	5274	1
5266	5263	5269	1
5292	5293	5294	1
5292	5293	5300	1
5292	5295	5296	1
5292	5295	5301	1
5292	5298	5299	1
5293	5294	5297	1
5293	5294	5304	1
5293	5292	5295	1
5293	5292	5298	1
5294	5293	5300	1
5294	5297	5296	1
5294	5297	5302	1
5294	5304	5306	1
5297	5294	5304	1
5295	5296	5297	1
5297	5296	5303	1
5296	5297	5302	1
5296	5295	5301	1
5296	5303	5305	1
5295	5296	5303	1
5295	5292	5298	1
5321	5324	5325	1
5321	5324	5330	1
5321	5322	5323	1
5321	5322	5329	1
5321	5327	5328	1
5324	5325	5326	1
5324	5325	5332	1
5324	5321	5322	1
5324	5321	5327	1
5325	5324	5330	1
5325	5326	5323	1
5325	5326	5331	1
5325	5332	5334	1
5326	5325	5332	1
5322	5323	5326	1
5326	5323	5333	1
5323	5326	5331	1
5323	5322	5329	1
5323	5333	5335	1
5322	5323	5333	1
5322	5321	5327	1
5336	5339	5340	1
5336	5339	5345	1
5336	5337	5338	1
5336	5337	5344	1
5336	5342	5343	1
5339	5340	5341	1
5339	5340	5347	1
5339	5336	5337	1
5339	5336	5342	1
5340	5339	5345	1
5340	5341	5338	1
5340	5341	5346	1
5340	5347	5349	1
5341	5340	5347	1
5337	5338	5341	1
5341	5338	5348	1
5338	5341	5346	1
5338	5337	5344	1
5338	5348	5350	1
5337	5338	5348	1
5337	5336	5342	1
5365	5368	5369	1
5365	5368	5374	1
5365	5366	5367	1
5365	5366	5373	1
5365	5371	5372	1
5368	5369	5370	1
5368	5369	5376	1
5366	5365	5368	1
5368	5365	5371	1
5369	5368	5374	1
5367	5370	5369	1
5369	5370	5375	1
5369	5376	5378	1
5370	5369	5376	1
5366	5367	5370	1
5370	5367	5377	1
5367	5370	5375	1
5367	5366	5373	1
5367	5377	5379	1
5366	5367	5377	1
5366	5365	5371	1
5394	5397	5398	1
5394	5397	5403	1
5394	5395	5396	1
5394	5395	5402	1
5394	5400	5401	1
5397	5398	5399	1
5397	5398	5405	1
5395	5394	5397	1
5397	5394	5400	1
5398	5397	5403	1
5396	5399	5398	1
5398	5399	5404	1
5398	5405	5407	1
5399	5398	5405	1
5395	5396	5399	1
5399	5396	5406	1
5396	5399	5404	1
5396	5395	5402	1
5396	5406	5408	1
5395	5396	5406	1
5395	5394	5400	1
5423	5426	5427	1
5423	5426	5432	1
5423	5424	5425	1
5423	5424	5431	1
5423	5429	5430	1
5426	5427	5428	1
5426	5427	5434	1
5424	5423	5426	1
5426	5423	5429	1
5427	5426	5432	1
5425	5428	5427	1
5427	5428	5433	1
5427	5434	5436	1
5428	5427	5434	1
5424	5425	5428	1
5428	5425	5435	1
5425	5428	5433	1
5425	5424	5431	1
5425	5435	5437	1
5424	5425	5435	1
5424	5423	5429	1
5452	5455	5456	1
5452	5455	5461	1
5452	5453	5454	1
5452	5453	5460	1
5452	5458	5459	1
5455	5456	5457	1
5455	5456	5463	1
5453	5452	5455	1
5455	5452	5458	1
5456	5455	5461	1
5454	5457	5456	1
5456	5457	5462	1
5456	5463	5465	1
5457	5456	5463	1
5453	5454	5457	1
5457	5454	5464	1
5454	5457	5462	1
5454	5453	5460	1
5454	5464	5466	1
5453	5454	5464	1
5453	5452	5458	1
5467	5468	5469	1
5467	5468	5475	1
5467	5470	5471	1
5467	5470	5476	1
5467	5473	5474	1
5468	5469	5472	1
5468	5469	5479	1
5468	5467	5470	1
5468	5467	5473	1
5469	5468	5475	1
5469	5472	5471	1
5469	5472	5477	1
5469	5479	5481	1
5472	5469	5479	1
5470	5471	5472	1
5472	5471	5478	1
5471	5472	5477	1
5471	5470	5476	1
5471	5478	5480	1
5470	5471	5478	1
5470	5467	5473	1
5496	5497	5498	1
5496	5497	5504	1
5496	5499	5500	1
5496	5499	5505	1
5496	5502	5503	1
5497	5498	5501	1
5497	5498	5508	1
5497	5496	5499	1
5497	5496	5502	1
5498	5497	5504	1
5498	5501	5500	1
5498	5501	5506	1
5498	5508	5510	1
5501	5498	5508	1
5499	5500	5501	1
5501	5500	5507	1
5500	5501	5506	1
5500	5499	5505	1
5500	5507	5509	1
5499	5500	5507	1
5499	5496	5502	1
5525	5528	5529	1
5525	5528	5534	1
5525	5526	5527	1
5525	5526	5533	1
5525	5531	5532	1
5528	5529	5530	1
5528	5529	5536	1
5528	5525	5526	1
5528	5525	5531	1
5529	5528	5534	1
5529	5530	5527	1
5529	5530	5535	1
5529	5536	5538	1
5530	5529	5536	1
5526	5527	5530	1
5530	5527	5537	1
5527	5530	5535	1
5527	5526	5533	1
5527	5537	5539	1
5526	5527	5537	1
5526	5525	5531	1
1031	1034	1035	1
1031	1034	1040	1
1031	1032	1033	1
1031	1032	1039	1
1031	1037	1038	1
1034	1035	1036	1
1034	1035	1042	1
1032	1031	1034	1
1034	1031	1037	1
1035	1034	1040	1
1033	1036	1035	1
1035	1036	1041	1
1035	1042	1044	1
1036	1035	1042	1
1032	1033	1036	1
1036	1033	1043	1
1033	1036	1041	1
1033	1032	1039	1
1033	1043	1045	1
1033	1043	1046	1
1032	1033	1043	1
1032	1031	1037	1
1043	1046	1047	1
1045	1043	1046	1
5554	5557	5558	1
5554	5557	5563	1
5554	5555	5556	1
5554	5555	5562	1
5554	5560	5561	1
5557	5558	5559	1
5557	5558	5565	1
5557	5554	5555	1
5557	5554	5560	1
5558	5557	5563	1
5558	5559	5556	1
5558	5559	5564	1
5558	5565	5567	1
5559	5558	5565	1
5555	5556	5559	1
5559	5556	5566	1
5556	5559	5564	1
5556	5555	5562	1
5556	5566	5568	1
5555	5556	5566	1
5555	5554	5560	1
5569	5570	5571	1
5571	5570	5577	1
5571	5574	5573	1
5571	5574	5579	1
5571	5581	5583	1
5570	5569	5572	1
5570	5569	5575	1
5570	5571	5574	1
5570	5571	5581	1
5569	5570	5577	1
5569	5572	5573	1
5569	5572	5578	1
5569	5575	5576	1
5572	5569	5575	1
5572	5573	5574	1
5572	5573	5580	1
5573	5572	5578	1
5573	5574	5579	1
5573	5580	5582	1
5574	5573	5580	1
5574	5571	5581	1
5584	5587	5588	1
5584	5587	5593	1
5584	5585	5586	1
5584	5585	5592	1
5584	5590	5591	1
5587	5588	5589	1
5587	5588	5595	1
5585	5584	5587	1
5587	5584	5590	1
5588	5587	5593	1
5586	5589	5588	1
5588	5589	5594	1
5588	5595	5597	1
5589	5588	5595	1
5585	5586	5589	1
5589	5586	5596	1
5586	5589	5594	1
5586	5585	5592	1
5586	5596	5598	1
5585	5586	5596	1
5585	5584	5590	1
5613	5616	5617	1
5613	5616	5622	1
5613	5614	5615	1
5613	5614	5621	1
5613	5619	5620	1
5616	5617	5618	1
5616	5617	5624	1
5614	5613	5616	1
5616	5613	5619	1
5617	5616	5622	1
5615	5618	5617	1
5617	5618	5623	1
5617	5624	5626	1
5618	5617	5624	1
5614	5615	5618	1
5618	5615	5625	1
5615	5618	5623	1
5615	5614	5621	1
5615	5625	5627	1
5614	5615	5625	1
5614	5613	5619	1
1078	1079	1080	1
1078	1079	1089	1
1078	1083	1082	1
1078	1083	1091	1
1078	1076	1077	1
1079	1080	1081	1
1079	1080	1086	1
1079	1078	1083	1
1079	1078	1076	1
1080	1079	1089	1
1080	1081	1082	1
1080	1081	1090	1
1080	1086	1087	1
1080	1086	1088	1
1081	1080	1086	1
1083	1082	1081	1
1081	1082	1084	1
1082	1081	1090	1
1082	1083	1091	1
1082	1084	1085	1
1083	1082	1084	1
1083	1078	1076	1
1087	1086	1088	1
5628	5631	5632	1
5628	5631	5637	1
5628	5629	5630	1
5628	5629	5636	1
5628	5634	5635	1
5631	5632	5633	1
5631	5632	5639	1
5629	5628	5631	1
5631	5628	5634	1
5632	5631	5637	1
5630	5633	5632	1
5632	5633	5638	1
5632	5639	5641	1
5633	5632	5639	1
5629	5630	5633	1
5633	5630	5640	1
5630	5633	5638	1
5630	5629	5636	1
5630	5640	5642	1
5629	5630	5640	1
5629	5628	5634	1
1092	1093	1094	1
1092	1093	1100	1
1092	1095	1096	1
1092	1095	1101	1
1092	1098	1099	1
1093	1094	1097	1
1093	1094	1104	1
1093	1092	1095	1
1093	1092	1098	1
1094	1093	1100	1
1094	1097	1096	1
1094	1097	1102	1
1094	1104	1106	1
1094	1104	1107	1
1097	1094	1104	1
1095	1096	1097	1
1097	1096	1103	1
1096	1097	1102	1
1096	1095	1101	1
1096	1103	1105	1
1095	1096	1103	1
1095	1092	1098	1
1104	1107	1108	1
1106	1104	1107	1
5657	5660	5661	1
5657	5660	5666	1
5657	5658	5659	1
5657	5658	5665	1
5657	5663	5664	1
5660	5661	5662	1
5660	5661	5668	1
5658	5657	5660	1
5660	5657	5663	1
5661	5660	5666	1
5659	5662	5661	1
5661	5662	5667	1
5661	5668	5670	1
5662	5661	5668	1
5658	5659	5662	1
5662	5659	5669	1
5659	5662	5667	1
5659	5658	5665	1
5659	5669	5671	1
5658	5659	5669	1
5658	5657	5663	1
1123	1124	1125	1
1125	1124	1131	1
1125	1128	1127	1
1125	1128	1133	1
1125	1135	1137	1
1125	1135	1138	1
1124	1123	1126	1
1124	1123	1129	1
1124	1125	1128	1
1124	1125	1135	1
1123	1124	1131	1
1123	1126	1127	1
1123	1126	1132	1
1123	1129	1130	1
1126	1123	1129	1
1126	1127	1128	1
1126	1127	1134	1
1127	1126	1132	1
1127	1128	1133	1
1127	1134	1136	1
1128	1127	1134	1
1128	1125	1135	1
1135	1138	1139	1
1137	1135	1138	1
5686	5689	5690	1
5690	5689	5695	1
5688	5691	5690	1
5690	5691	5696	1
5690	5697	5699	1
5687	5686	5689	1
5689	5686	5692	1
5691	5690	5689	1
5689	5690	5697	1
5686	5689	5695	1
5688	5687	5686	1
5686	5687	5694	1
5686	5692	5693	1
5687	5686	5692	1
5687	5688	5691	1
5687	5688	5698	1
5688	5687	5694	1
5688	5691	5696	1
5688	5698	5700	1
5691	5688	5698	1
5691	5690	5697	1
5715	5716	5717	1
5715	5716	5723	1
5715	5718	5719	1
5715	5718	5724	1
5715	5721	5722	1
5716	5717	5720	1
5716	5717	5727	1
5718	5715	5716	1
5716	5715	5721	1
5717	5716	5723	1
5719	5720	5717	1
5717	5720	5725	1
5717	5727	5729	1
5720	5717	5727	1
5718	5719	5720	1
5720	5719	5726	1
5719	5720	5725	1
5719	5718	5724	1
5719	5726	5728	1
5718	5719	5726	1
5718	5715	5721	1
5730	5731	5732	1
5730	5731	5738	1
5730	5733	5734	1
5730	5733	5739	1
5730	5736	5737	1
5731	5732	5735	1
5731	5732	5742	1
5733	5730	5731	1
5731	5730	5736	1
5732	5731	5738	1
5734	5735	5732	1
5732	5735	5740	1
5732	5742	5744	1
5735	5732	5742	1
5733	5734	5735	1
5735	5734	5741	1
5734	5735	5740	1
5734	5733	5739	1
5734	5741	5743	1
5733	5734	5741	1
5733	5730	5736	1
1154	1155	1156	1
1154	1155	1162	1
1154	1157	1158	1
1154	1157	1163	1
1154	1160	1161	1
1155	1156	1159	1
1155	1156	1166	1
1155	1154	1157	1
1155	1154	1160	1
1156	1155	1162	1
1156	1159	1158	1
1156	1159	1164	1
1156	1166	1168	1
1156	1166	1169	1
1159	1156	1166	1
1157	1158	1159	1
1159	1158	1165	1
1158	1159	1164	1
1158	1157	1163	1
1158	1165	1167	1
1157	1158	1165	1
1157	1154	1160	1
1166	1169	1170	1
1168	1166	1169	1
5759	5762	5763	1
5759	5762	5768	1
5759	5760	5761	1
5759	5760	5767	1
5759	5765	5766	1
5762	5763	5764	1
5762	5763	5770	1
5760	5759	5762	1
5762	5759	5765	1
5763	5762	5768	1
5761	5764	5763	1
5763	5764	5769	1
5763	5770	5772	1
5764	5763	5770	1
5760	5761	5764	1
5764	5761	5771	1
5761	5764	5769	1
5761	5760	5767	1
5761	5771	5773	1
5760	5761	5771	1
5760	5759	5765	1
1171	1172	1173	1
1171	1172	1179	1
1171	1174	1175	1
1171	1174	1180	1
1171	1177	1178	1
1172	1173	1176	1
1172	1173	1183	1
1172	1171	1174	1
1172	1171	1177	1
1173	1172	1179	1
1173	1176	1175	1
1173	1176	1181	1
1173	1183	1185	1
1173	1183	1186	1
1176	1173	1183	1
1174	1175	1176	1
1176	1175	1182	1
1175	1176	1181	1
1175	1174	1180	1
1175	1182	1184	1
1174	1175	1182	1
1174	1171	1177	1
1183	1186	1187	1
1185	1183	1186	1
1202	1203	1204	1
1204	1203	1210	1
1204	1207	1206	1
1204	1207	1212	1
1204	1214	1216	1
1204	1214	1217	1
1203	1202	1205	1
1203	1202	1208	1
1203	1204	1207	1
1203	1204	1214	1
1202	1203	1210	1
1202	1205	1206	1
1202	1205	1211	1
1202	1208	1209	1
1205	1202	1208	1
1205	1206	1207	1
1205	1206	1213	1
1206	1205	1211	1
1206	1207	1212	1
1206	1213	1215	1
1207	1206	1213	1
1207	1204	1214	1
1214	1217	1218	1
1216	1214	1217	1
5790	5793	5792	1
5792	5793	5798	1
5788	5791	5792	1
5792	5791	5797	1
5792	5799	5801	1
5789	5790	5793	1
5793	5790	5800	1
5791	5792	5793	1
5793	5792	5799	1
5790	5793	5798	1
5788	5789	5790	1
5790	5789	5796	1
5790	5800	5802	1
5789	5790	5800	1
5789	5788	5791	1
5789	5788	5794	1
5788	5789	5796	1
5788	5791	5797	1
5788	5794	5795	1
5791	5788	5794	1
5791	5792	5799	1
5803	5806	5807	1
5803	5806	5812	1
5803	5804	5805	1
5803	5804	5811	1
5803	5809	5810	1
5806	5807	5808	1
5806	5807	5814	1
5804	5803	5806	1
5806	5803	5809	1
5807	5806	5812	1
5805	5808	5807	1
5807	5808	5813	1
5807	5814	5816	1
5808	5807	5814	1
5804	5805	5808	1
5808	5805	5815	1
5805	5808	5813	1
5805	5804	5811	1
5805	5815	5817	1
5804	5805	5815	1
5804	5803	5809	1
5832	5835	5836	1
5832	5835	5841	1
5832	5833	5834	1
5832	5833	5840	1
5832	5838	5839	1
5835	5836	5837	1
5835	5836	5843	1
5833	5832	5835	1
5835	5832	5838	1
5836	5835	5841	1
5834	5837	5836	1
5836	5837	5842	1
5836	5843	5845	1
5837	5836	5843	1
5833	5834	5837	1
5837	5834	5844	1
5834	5837	5842	1
5834	5833	5840	1
5834	5844	5846	1
5833	5834	5844	1
5833	5832	5838	1
5861	5862	5863	1
5861	5862	5869	1
5861	5864	5865	1
5861	5864	5870	1
5861	5867	5868	1
5862	5863	5866	1
5862	5863	5873	1
5862	5861	5864	1
5862	5861	5867	1
5863	5862	5869	1
5863	5866	5865	1
5863	5866	5871	1
5863	5873	5875	1
5866	5863	5873	1
5864	5865	5866	1
5866	5865	5872	1
5865	5866	5871	1
5865	5864	5870	1
5865	5872	5874	1
5864	5865	5872	1
5864	5861	5867	1
5890	5891	5892	1
5890	5891	5898	1
5890	5893	5894	1
5890	5893	5899	1
5890	5896	5897	1
5891	5892	5895	1
5891	5892	5902	1
5891	5890	5893	1
5891	5890	5896	1
5892	5891	5898	1
5892	5895	5894	1
5892	5895	5900	1
5892	5902	5904	1
5895	5892	5902	1
5893	5894	5895	1
5895	5894	5901	1
5894	5895	5900	1
5894	5893	5899	1
5894	5901	5903	1
5893	5894	5901	1
5893	5890	5896	1
5905	5908	5909	1
5905	5908	5914	1
5905	5906	5907	1
5905	5906	5913	1
5905	5911	5912	1
5908	5909	5910	1
5908	5909	5916	1
5908	5905	5906	1
5908	5905	5911	1
5909	5908	5914	1
5909	5910	5907	1
5909	5910	5915	1
5909	5916	5918	1
5910	5909	5916	1
5906	5907	5910	1
5910	5907	5917	1
5907	5910	5915	1
5907	5906	5913	1
5907	5917	5919	1
5906	5907	5917	1
5906	5905	5911	1
5920	5923	5924	1
5920	5923	5929	1
5920	5921	5922	1
5920	5921	5928	1
5920	5926	5927	1
5923	5924	5925	1
5923	5924	5931	1
5923	5920	5921	1
5923	5920	5926	1
5924	5923	5929	1
5924	5925	5922	1
5924	5925	5930	1
5924	5931	5933	1
5925	5924	5931	1
5921	5922	5925	1
5925	5922	5932	1
5922	5925	5930	1
5922	5921	5928	1
5922	5932	5934	1
5921	5922	5932	1
5921	5920	5926	1
1250	1251	1252	1
1252	1251	1261	1
1252	1253	1254	1
1252	1253	1262	1
1252	1258	1259	1
1252	1258	1260	1
1251	1250	1255	1
1251	1250	1248	1
1251	1252	1253	1
1251	1252	1258	1
1250	1251	1261	1
1250	1255	1254	1
1250	1255	1263	1
1250	1248	1249	1
1255	1250	1248	1
1255	1254	1253	1
1255	1254	1256	1
1254	1255	1263	1
1254	1253	1262	1
1254	1256	1257	1
1253	1254	1256	1
1253	1252	1258	1
1259	1258	1260	1
5935	5936	5937	1
5935	5936	5943	1
5935	5938	5939	1
5935	5938	5944	1
5935	5941	5942	1
5936	5937	5940	1
5936	5937	5947	1
5936	5935	5938	1
5936	5935	5941	1
5937	5936	5943	1
5937	5940	5939	1
5937	5940	5945	1
5937	5947	5949	1
5940	5937	5947	1
5938	5939	5940	1
5940	5939	5946	1
5939	5940	5945	1
5939	5938	5944	1
5939	5946	5948	1
5938	5939	5946	1
5938	5935	5941	1
5964	5967	5968	1
5964	5967	5973	1
5964	5965	5966	1
5964	5965	5972	1
5964	5970	5971	1
5967	5968	5969	1
5967	5968	5975	1
5965	5964	5967	1
5967	5964	5970	1
5968	5967	5973	1
5966	5969	5968	1
5968	5969	5974	1
5968	5975	5977	1
5969	5968	5975	1
5965	5966	5969	1
5969	5966	5976	1
5966	5969	5974	1
5966	5965	5972	1
5966	5976	5978	1
5965	5966	5976	1
5965	5964	5970	1
5993	5996	5997	1
5993	5996	6002	1
5993	5994	5995	1
5993	5994	6001	1
5993	5999	6000	1
5996	5997	5998	1
5996	5997	6004	1
5994	5993	5996	1
5996	5993	5999	1
5997	5996	6002	1
5995	5998	5997	1
5997	5998	6003	1
5997	6004	6006	1
5998	5997	6004	1
5994	5995	5998	1
5998	5995	6005	1
5995	5998	6003	1
5995	5994	6001	1
5995	6005	6007	1
5994	5995	6005	1
5994	5993	5999	1
6008	6011	6012	1
6008	6011	6017	1
6008	6009	6010	1
6008	6009	6016	1
6008	6014	6015	1
6011	6012	6013	1
6011	6012	6019	1
6009	6008	6011	1
6011	6008	6014	1
6012	6011	6017	1
6010	6013	6012	1
6012	6013	6018	1
6012	6019	6021	1
6013	6012	6019	1
6009	6010	6013	1
6013	6010	6020	1
6010	6013	6018	1
6010	6009	6016	1
6010	6020	6022	1
6009	6010	6020	1
6009	6008	6014	1
1264	1265	1266	1
1264	1265	1272	1
1264	1267	1268	1
1264	1267	1273	1
1264	1270	1271	1
1265	1266	1269	1
1265	1266	1276	1
1265	1264	1267	1
1265	1264	1270	1
1266	1265	1272	1
1266	1269	1268	1
1266	1269	1274	1
1266	1276	1278	1
1266	1276	1279	1
1269	1266	1276	1
1267	1268	1269	1
1269	1268	1275	1
1268	1269	1274	1
1268	1267	1273	1
1268	1275	1277	1
1267	1268	1275	1
1267	1264	1270	1
1276	1279	1280	1
1278	1276	1279	1
6037	6040	6041	1
6037	6040	6046	1
6037	6038	6039	1
6037	6038	6045	1
6037	6043	6044	1
6040	6041	6042	1
6040	6041	6048	1
6038	6037	6040	1
6040	6037	6043	1
6041	6040	6046	1
6039	6042	6041	1
6041	6042	6047	1
6041	6048	6050	1
6042	6041	6048	1
6038	6039	6042	1
6042	6039	6049	1
6039	6042	6047	1
6039	6038	6045	1
6039	6049	6051	1
6038	6039	6049	1
6038	6037	6043	1
6066	6069	6070	1
6066	6069	6075	1
6066	6067	6068	1
6066	6067	6074	1
6066	6072	6073	1
6069	6070	6071	1
6069	6070	6077	1
6067	6066	6069	1
6069	6066	6072	1
6070	6069	6075	1
6068	6071	6070	1
6070	6071	6076	1
6070	6077	6079	1
6071	6070	6077	1
6067	6068	6071	1
6071	6068	6078	1
6068	6071	6076	1
6068	6067	6074	1
6068	6078	6080	1
6067	6068	6078	1
6067	6066	6072	1
1297	1298	1299	1
1297	1298	1308	1
1297	1302	1301	1
1297	1302	1310	1
1297	1295	1296	1
1298	1299	1300	1
1298	1299	1305	1
1298	1297	1302	1
1298	1297	1295	1
1299	1298	1308	1
1299	1300	1301	1
1299	1300	1309	1
1299	1305	1306	1
1299	1305	1307	1
1300	1299	1305	1
1302	1301	1300	1
1300	1301	1303	1
1301	1300	1309	1
1301	1302	1310	1
1301	1303	1304	1
1302	1301	1303	1
1302	1297	1295	1
1306	1305	1307	1
6099	6100	6097	1
6099	6100	6105	1
6099	6098	6095	1
6099	6098	6104	1
6099	6106	6108	1
6100	6097	6096	1
6100	6097	6107	1
6098	6099	6100	1
6100	6099	6106	1
6097	6100	6105	1
6095	6096	6097	1
6097	6096	6103	1
6097	6107	6109	1
6096	6097	6107	1
6098	6095	6096	1
6096	6095	6101	1
6095	6096	6103	1
6095	6098	6104	1
6095	6101	6102	1
6098	6095	6101	1
6098	6099	6106	1
6124	6127	6128	1
6124	6127	6133	1
6124	6125	6126	1
6124	6125	6132	1
6124	6130	6131	1
6127	6128	6129	1
6127	6128	6135	1
6127	6124	6125	1
6127	6124	6130	1
6128	6127	6133	1
6128	6129	6126	1
6128	6129	6134	1
6128	6135	6137	1
6129	6128	6135	1
6125	6126	6129	1
6129	6126	6136	1
6126	6129	6134	1
6126	6125	6132	1
6126	6136	6138	1
6125	6126	6136	1
6125	6124	6130	1
6153	6154	6155	1
6153	6154	6161	1
6153	6156	6157	1
6153	6156	6162	1
6153	6159	6160	1
6154	6155	6158	1
6154	6155	6165	1
6154	6153	6156	1
6154	6153	6159	1
6155	6154	6161	1
6155	6158	6157	1
6155	6158	6163	1
6155	6165	6167	1
6158	6155	6165	1
6156	6157	6158	1
6158	6157	6164	1
6157	6158	6163	1
6157	6156	6162	1
6157	6164	6166	1
6156	6157	6164	1
6156	6153	6159	1
6182	6183	6184	1
6182	6183	6190	1
6182	6185	6186	1
6182	6185	6191	1
6182	6188	6189	1
6183	6184	6187	1
6183	6184	6194	1
6183	6182	6185	1
6183	6182	6188	1
6184	6183	6190	1
6184	6187	6186	1
6184	6187	6192	1
6184	6194	6196	1
6187	6184	6194	1
6185	6186	6187	1
6187	6186	6193	1
6186	6187	6192	1
6186	6185	6191	1
6186	6193	6195	1
6185	6186	6193	1
6185	6182	6188	1
6211	6212	6213	1
6211	6212	6219	1
6211	6214	6215	1
6211	6214	6220	1
6211	6217	6218	1
6212	6213	6216	1
6212	6213	6223	1
6212	6211	6214	1
6212	6211	6217	1
6213	6212	6219	1
6213	6216	6215	1
6213	6216	6221	1
6213	6223	6225	1
6216	6213	6223	1
6214	6215	6216	1
6216	6215	6222	1
6215	6216	6221	1
6215	6214	6220	1
6215	6222	6224	1
6214	6215	6222	1
6214	6211	6217	1
6226	6229	6230	1
6226	6229	6235	1
6226	6227	6228	1
6226	6227	6234	1
6226	6232	6233	1
6229	6230	6231	1
6229	6230	6237	1
6227	6226	6229	1
6229	6226	6232	1
6230	6229	6235	1
6228	6231	6230	1
6230	6231	6236	1
6230	6237	6239	1
6231	6230	6237	1
6227	6228	6231	1
6231	6228	6238	1
6228	6231	6236	1
6228	6227	6234	1
6228	6238	6240	1
6227	6228	6238	1
6227	6226	6232	1
6255	6258	6259	1
6255	6258	6264	1
6255	6256	6257	1
6255	6256	6263	1
6255	6261	6262	1
6258	6259	6260	1
6258	6259	6266	1
6256	6255	6258	1
6258	6255	6261	1
6259	6258	6264	1
6257	6260	6259	1
6259	6260	6265	1
6259	6266	6268	1
6260	6259	6266	1
6256	6257	6260	1
6260	6257	6267	1
6257	6260	6265	1
6257	6256	6263	1
6257	6267	6269	1
6256	6257	6267	1
6256	6255	6261	1
6270	6273	6274	1
6270	6273	6279	1
6270	6271	6272	1
6270	6271	6278	1
6270	6276	6277	1
6273	6274	6275	1
6273	6274	6281	1
6271	6270	6273	1
6273	6270	6276	1
6274	6273	6279	1
6272	6275	6274	1
6274	6275	6280	1
6274	6281	6283	1
6275	6274	6281	1
6271	6272	6275	1
6275	6272	6282	1
6272	6275	6280	1
6272	6271	6278	1
6272	6282	6284	1
6271	6272	6282	1
6271	6270	6276	1
6299	6302	6303	1
6299	6302	6308	1
6299	6300	6301	1
6299	6300	6307	1
6299	6305	6306	1
6302	6303	6304	1
6302	6303	6310	1
6302	6299	6300	1
6302	6299	6305	1
6303	6302	6308	1
6303	6304	6301	1
6303	6304	6309	1
6303	6310	6312	1
6304	6303	6310	1
6300	6301	6304	1
6304	6301	6311	1
6301	6304	6309	1
6301	6300	6307	1
6301	6311	6313	1
6300	6301	6311	1
6300	6299	6305	1
6314	6317	6318	1
6314	6317	6323	1
6314	6315	6316	1
6314	6315	6322	1
6314	6320	6321	1
6317	6318	6319	1
6317	6318	6325	1
6317	6314	6315	1
6317	6314	6320	1
6318	6317	6323	1
6318	6319	6316	1
6318	6319	6324	1
6318	6325	6327	1
6319	6318	6325	1
6315	6316	6319	1
6319	6316	6326	1
6316	6319	6324	1
6316	6315	6322	1
6316	6326	6328	1
6315	6316	6326	1
6315	6314	6320	1
6329	6330	6331	1
6329	6330	6337	1
6329	6332	6333	1
6329	6332	6338	1
6329	6335	6336	1
6330	6331	6334	1
6330	6331	6341	1
6330	6329	6332	1
6330	6329	6335	1
6331	6330	6337	1
6331	6334	6333	1
6331	6334	6339	1
6331	6341	6343	1
6334	6331	6341	1
6332	6333	6334	1
6334	6333	6340	1
6333	6334	6339	1
6333	6332	6338	1
6333	6340	6342	1
6332	6333	6340	1
6332	6329	6335	1
6358	6359	6360	1
6358	6359	6366	1
6358	6361	6362	1
6358	6361	6367	1
6358	6364	6365	1
6359	6360	6363	1
6359	6360	6370	1
6359	6358	6361	1
6359	6358	6364	1
6360	6359	6366	1
6360	6363	6362	1
6360	6363	6368	1
6360	6370	6372	1
6363	6360	6370	1
6361	6362	6363	1
6363	6362	6369	1
6362	6363	6368	1
6362	6361	6367	1
6362	6369	6371	1
6361	6362	6369	1
6361	6358	6364	1
6387	6390	6391	1
6387	6390	6396	1
6387	6388	6389	1
6387	6388	6395	1
6387	6393	6394	1
6390	6391	6392	1
6390	6391	6398	1
6388	6387	6390	1
6390	6387	6393	1
6391	6390	6396	1
6389	6392	6391	1
6391	6392	6397	1
6391	6398	6400	1
6392	6391	6398	1
6388	6389	6392	1
6392	6389	6399	1
6389	6392	6397	1
6389	6388	6395	1
6389	6399	6401	1
6388	6389	6399	1
6388	6387	6393	1
6416	6419	6420	1
6416	6419	6425	1
6416	6417	6418	1
6416	6417	6424	1
6416	6422	6423	1
6419	6420	6421	1
6419	6420	6427	1
6417	6416	6419	1
6419	6416	6422	1
6420	6419	6425	1
6418	6421	6420	1
6420	6421	6426	1
6420	6427	6429	1
6421	6420	6427	1
6417	6418	6421	1
6421	6418	6428	1
6418	6421	6426	1
6418	6417	6424	1
6418	6428	6430	1
6417	6418	6428	1
6417	6416	6422	1
6445	6448	6449	1
6445	6448	6454	1
6445	6446	6447	1
6445	6446	6453	1
6445	6451	6452	1
6448	6449	6450	1
6448	6449	6456	1
6446	6445	6448	1
6448	6445	6451	1
6449	6448	6454	1
6447	6450	6449	1
6449	6450	6455	1
6449	6456	6458	1
6450	6449	6456	1
6446	6447	6450	1
6450	6447	6457	1
6447	6450	6455	1
6447	6446	6453	1
6447	6457	6459	1
6446	6447	6457	1
6446	6445	6451	1
6474	6475	6476	1
6476	6475	6482	1
6476	6479	6478	1
6476	6479	6484	1
6476	6486	6488	1
6475	6474	6477	1
6475	6474	6480	1
6475	6476	6479	1
6475	6476	6486	1
6474	6475	6482	1
6474	6477	6478	1
6474	6477	6483	1
6474	6480	6481	1
6477	6474	6480	1
6477	6478	6479	1
6477	6478	6485	1
6478	6477	6483	1
6478	6479	6484	1
6478	6485	6487	1
6479	6478	6485	1
6479	6476	6486	1
6503	6506	6507	1
6503	6506	6512	1
6503	6504	6505	1
6503	6504	6511	1
6503	6509	6510	1
6506	6507	6508	1
6506	6507	6514	1
6506	6503	6504	1
6506	6503	6509	1
6507	6506	6512	1
6507	6508	6505	1
6507	6508	6513	1
6507	6514	6516	1
6508	6507	6514	1
6504	6505	6508	1
6508	6505	6515	1
6505	6508	6513	1
6505	6504	6511	1
6505	6515	6517	1
6504	6505	6515	1
6504	6503	6509	1
1311	1312	1313	1
1313	1312	1319	1
1313	1316	1315	1
1313	1316	1321	1
1313	1323	1325	1
1313	1323	1326	1
1312	1311	1314	1
1312	1311	1317	1
1312	1313	1316	1
1312	1313	1323	1
1311	1312	1319	1
1311	1314	1315	1
1311	1314	1320	1
1311	1317	1318	1
1314	1311	1317	1
1314	1315	1316	1
1314	1315	1322	1
1315	1314	1320	1
1315	1316	1321	1
1315	1322	1324	1
1316	1315	1322	1
1316	1313	1323	1
1323	1326	1327	1
1325	1323	1326	1
1346	1347	1344	1
1346	1347	1352	1
1346	1345	1342	1
1346	1345	1351	1
1346	1353	1355	1
1347	1344	1343	1
1347	1344	1354	1
1347	1346	1345	1
1347	1346	1353	1
1344	1347	1352	1
1344	1343	1342	1
1344	1343	1350	1
1344	1354	1356	1
1344	1354	1357	1
1343	1344	1354	1
1345	1342	1343	1
1343	1342	1348	1
1342	1343	1350	1
1342	1345	1351	1
1342	1348	1349	1
1345	1342	1348	1
1345	1346	1353	1
1354	1357	1358	1
1356	1354	1357	1
6534	6533	6532	1
6534	6533	6540	1
6534	6537	6536	1
6534	6537	6542	1
6534	6544	6546	1
6533	6532	6535	1
6533	6532	6538	1
6537	6534	6533	1
6533	6534	6544	1
6532	6533	6540	1
6536	6535	6532	1
6532	6535	6541	1
6532	6538	6539	1
6535	6532	6538	1
6537	6536	6535	1
6535	6536	6543	1
6536	6535	6541	1
6536	6537	6542	1
6536	6543	6545	1
6537	6536	6543	1
6537	6534	6544	1
6547	6548	6549	1
6547	6548	6555	1
6547	6550	6551	1
6547	6550	6556	1
6547	6553	6554	1
6548	6549	6552	1
6548	6549	6559	1
6548	6547	6550	1
6548	6547	6553	1
6549	6548	6555	1
6549	6552	6551	1
6549	6552	6557	1
6549	6559	6561	1
6552	6549	6559	1
6550	6551	6552	1
6552	6551	6558	1
6551	6552	6557	1
6551	6550	6556	1
6551	6558	6560	1
6550	6551	6558	1
6550	6547	6553	1
6576	6577	6578	1
6576	6577	6584	1
6576	6579	6580	1
6576	6579	6585	1
6576	6582	6583	1
6577	6578	6581	1
6577	6578	6588	1
6577	6576	6579	1
6577	6576	6582	1
6578	6577	6584	1
6578	6581	6580	1
6578	6581	6586	1
6578	6588	6590	1
6581	6578	6588	1
6579	6580	6581	1
6581	6580	6587	1
6580	6581	6586	1
6580	6579	6585	1
6580	6587	6589	1
6579	6580	6587	1
6579	6576	6582	1
6605	6606	6607	1
6605	6606	6613	1
6605	6608	6609	1
6605	6608	6614	1
6605	6611	6612	1
6606	6607	6610	1
6606	6607	6617	1
6606	6605	6608	1
6606	6605	6611	1
6607	6606	6613	1
6607	6610	6609	1
6607	6610	6615	1
6607	6617	6619	1
6610	6607	6617	1
6608	6609	6610	1
6610	6609	6616	1
6609	6610	6615	1
6609	6608	6614	1
6609	6616	6618	1
6608	6609	6616	1
6608	6605	6611	1
6634	6635	6636	1
6634	6635	6642	1
6634	6637	6638	1
6634	6637	6643	1
6634	6640	6641	1
6635	6636	6639	1
6635	6636	6646	1
6635	6634	6637	1
6635	6634	6640	1
6636	6635	6642	1
6636	6639	6638	1
6636	6639	6644	1
6636	6646	6648	1
6639	6636	6646	1
6637	6638	6639	1
6639	6638	6645	1
6638	6639	6644	1
6638	6637	6643	1
6638	6645	6647	1
6637	6638	6645	1
6637	6634	6640	1
6663	6666	6667	1
6663	6666	6672	1
6663	6664	6665	1
6663	6664	6671	1
6663	6669	6670	1
6666	6667	6668	1
6666	6667	6674	1
6664	6663	6666	1
6666	6663	6669	1
6667	6666	6672	1
6665	6668	6667	1
6667	6668	6673	1
6667	6674	6676	1
6668	6667	6674	1
6664	6665	6668	1
6668	6665	6675	1
6665	6668	6673	1
6665	6664	6671	1
6665	6675	6677	1
6664	6665	6675	1
6664	6663	6669	1
6694	6697	6696	1
6696	6697	6702	1
6692	6695	6696	1
6696	6695	6701	1
6696	6703	6705	1
6693	6694	6697	1
6697	6694	6704	1
6695	6696	6697	1
6697	6696	6703	1
6694	6697	6702	1
6692	6693	6694	1
6694	6693	6700	1
6694	6704	6706	1
6693	6694	6704	1
6693	6692	6695	1
6693	6692	6698	1
6692	6693	6700	1
6692	6695	6701	1
6692	6698	6699	1
6695	6692	6698	1
6695	6696	6703	1
6707	6708	6709	1
6707	6708	6715	1
6707	6710	6711	1
6707	6710	6716	1
6707	6713	6714	1
6708	6709	6712	1
6708	6709	6719	1
6710	6707	6708	1
6708	6707	6713	1
6709	6708	6715	1
6711	6712	6709	1
6709	6712	6717	1
6709	6719	6721	1
6712	6709	6719	1
6710	6711	6712	1
6712	6711	6718	1
6711	6712	6717	1
6711	6710	6716	1
6711	6718	6720	1
6710	6711	6718	1
6710	6707	6713	1
6736	6737	6738	1
6736	6737	6744	1
6736	6739	6740	1
6736	6739	6745	1
6736	6742	6743	1
6737	6738	6741	1
6737	6738	6748	1
6739	6736	6737	1
6737	6736	6742	1
6738	6737	6744	1
6740	6741	6738	1
6738	6741	6746	1
6738	6748	6750	1
6741	6738	6748	1
6739	6740	6741	1
6741	6740	6747	1
6740	6741	6746	1
6740	6739	6745	1
6740	6747	6749	1
6739	6740	6747	1
6739	6736	6742	1
6765	6766	6767	1
6765	6766	6773	1
6765	6768	6769	1
6765	6768	6774	1
6765	6771	6772	1
6766	6767	6770	1
6766	6767	6777	1
6766	6765	6768	1
6766	6765	6771	1
6767	6766	6773	1
6767	6770	6769	1
6767	6770	6775	1
6767	6777	6779	1
6770	6767	6777	1
6768	6769	6770	1
6770	6769	6776	1
6769	6770	6775	1
6769	6768	6774	1
6769	6776	6778	1
6768	6769	6776	1
6768	6765	6771	1
6780	6781	6782	1
6780	6781	6788	1
6780	6783	6784	1
6780	6783	6789	1
6780	6786	6787	1
6781	6782	6785	1
6781	6782	6792	1
6781	6780	6783	1
6781	6780	6786	1
6782	6781	6788	1
6782	6785	6784	1
6782	6785	6790	1
6782	6792	6794	1
6785	6782	6792	1
6783	6784	6785	1
6785	6784	6791	1
6784	6785	6790	1
6784	6783	6789	1
6784	6791	6793	1
6783	6784	6791	1
6783	6780	6786	1
6809	6810	6811	1
6809	6810	6817	1
6809	6812	6813	1
6809	6812	6818	1
6809	6815	6816	1
6810	6811	6814	1
6810	6811	6821	1
6810	6809	6812	1
6810	6809	6815	1
6811	6810	6817	1
6811	6814	6813	1
6811	6814	6819	1
6811	6821	6823	1
6814	6811	6821	1
6812	6813	6814	1
6814	6813	6820	1
6813	6814	6819	1
6813	6812	6818	1
6813	6820	6822	1
6812	6813	6820	1
6812	6809	6815	1
6838	6839	6840	1
6838	6839	6846	1
6838	6841	6842	1
6838	6841	6847	1
6838	6844	6845	1
6839	6840	6843	1
6839	6840	6850	1
6839	6838	6841	1
6839	6838	6844	1
6840	6839	6846	1
6840	6843	6842	1
6840	6843	6848	1
6840	6850	6852	1
6843	6840	6850	1
6841	6842	6843	1
6843	6842	6849	1
6842	6843	6848	1
6842	6841	6847	1
6842	6849	6851	1
6841	6842	6849	1
6841	6838	6844	1
6867	6870	6871	1
6867	6870	6876	1
6867	6868	6869	1
6867	6868	6875	1
6867	6873	6874	1
6870	6871	6872	1
6870	6871	6878	1
6868	6867	6870	1
6870	6867	6873	1
6871	6870	6876	1
6869	6872	6871	1
6871	6872	6877	1
6871	6878	6880	1
6872	6871	6878	1
6868	6869	6872	1
6872	6869	6879	1
6869	6872	6877	1
6869	6868	6875	1
6869	6879	6881	1
6868	6869	6879	1
6868	6867	6873	1
1373	1374	1375	1
1373	1374	1381	1
1373	1376	1377	1
1373	1376	1382	1
1373	1379	1380	1
1374	1375	1378	1
1374	1375	1385	1
1374	1373	1376	1
1374	1373	1379	1
1375	1374	1381	1
1375	1378	1377	1
1375	1378	1383	1
1375	1385	1387	1
1375	1385	1388	1
1378	1375	1385	1
1376	1377	1378	1
1378	1377	1384	1
1377	1378	1383	1
1377	1376	1382	1
1377	1384	1386	1
1376	1377	1384	1
1376	1373	1379	1
1385	1388	1389	1
1387	1385	1388	1
1404	1407	1408	1
1404	1407	1413	1
1404	1405	1406	1
1404	1405	1412	1
1404	1410	1411	1
1407	1408	1409	1
1407	1408	1415	1
1405	1404	1407	1
1407	1404	1410	1
1408	1407	1413	1
1406	1409	1408	1
1408	1409	1414	1
1408	1415	1417	1
1409	1408	1415	1
1405	1406	1409	1
1409	1406	1416	1
1406	1409	1414	1
1406	1405	1412	1
1406	1416	1418	1
1406	1416	1419	1
1405	1406	1416	1
1405	1404	1410	1
1416	1419	1420	1
1418	1416	1419	1
6896	6897	6898	1
6896	6897	6904	1
6896	6899	6900	1
6896	6899	6905	1
6896	6902	6903	1
6897	6898	6901	1
6897	6898	6908	1
6897	6896	6899	1
6897	6896	6902	1
6898	6897	6904	1
6898	6901	6900	1
6898	6901	6906	1
6898	6908	6910	1
6901	6898	6908	1
6899	6900	6901	1
6901	6900	6907	1
6900	6901	6906	1
6900	6899	6905	1
6900	6907	6909	1
6899	6900	6907	1
6899	6896	6902	1
6911	6912	6913	1
6911	6912	6919	1
6911	6914	6915	1
6911	6914	6920	1
6911	6917	6918	1
6912	6913	6916	1
6912	6913	6923	1
6914	6911	6912	1
6912	6911	6917	1
6913	6912	6919	1
6915	6916	6913	1
6913	6916	6921	1
6913	6923	6925	1
6916	6913	6923	1
6914	6915	6916	1
6916	6915	6922	1
6915	6916	6921	1
6915	6914	6920	1
6915	6922	6924	1
6914	6915	6922	1
6914	6911	6917	1
6940	6941	6942	1
6940	6941	6948	1
6940	6943	6944	1
6940	6943	6949	1
6940	6946	6947	1
6941	6942	6945	1
6941	6942	6952	1
6943	6940	6941	1
6941	6940	6946	1
6942	6941	6948	1
6944	6945	6942	1
6942	6945	6950	1
6942	6952	6954	1
6945	6942	6952	1
6943	6944	6945	1
6945	6944	6951	1
6944	6945	6950	1
6944	6943	6949	1
6944	6951	6953	1
6943	6944	6951	1
6943	6940	6946	1
6973	6972	6969	1
6973	6972	6978	1
6973	6974	6971	1
6973	6974	6979	1
6973	6980	6982	1
6972	6969	6970	1
6972	6969	6975	1
6974	6973	6972	1
6972	6973	6980	1
6969	6972	6978	1
6971	6970	6969	1
6969	6970	6977	1
6969	6975	6976	1
6970	6969	6975	1
6974	6971	6970	1
6970	6971	6981	1
6971	6970	6977	1
6971	6974	6979	1
6971	6981	6983	1
6974	6971	6981	1
6974	6973	6980	1
1451	1456	1455	1
1451	1456	1464	1
1451	1452	1453	1
1451	1452	1462	1
1451	1449	1450	1
1456	1455	1454	1
1456	1455	1457	1
1452	1451	1456	1
1456	1451	1449	1
1455	1456	1464	1
1453	1454	1455	1
1455	1454	1463	1
1455	1457	1458	1
1454	1455	1457	1
1452	1453	1454	1
1454	1453	1459	1
1453	1454	1463	1
1453	1452	1462	1
1453	1459	1460	1
1453	1459	1461	1
1452	1453	1459	1
1452	1451	1449	1
1460	1459	1461	1
6984	6987	6988	1
6984	6987	6993	1
6984	6985	6986	1
6984	6985	6992	1
6984	6990	6991	1
6987	6988	6989	1
6987	6988	6995	1
6985	6984	6987	1
6987	6984	6990	1
6988	6987	6993	1
6986	6989	6988	1
6988	6989	6994	1
6988	6995	6997	1
6989	6988	6995	1
6985	6986	6989	1
6989	6986	6996	1
6986	6989	6994	1
6986	6985	6992	1
6986	6996	6998	1
6985	6986	6996	1
6985	6984	6990	1
1465	1466	1467	1
1467	1466	1473	1
1467	1470	1469	1
1467	1470	1475	1
1467	1477	1479	1
1467	1477	1480	1
1466	1465	1468	1
1466	1465	1471	1
1466	1467	1470	1
1466	1467	1477	1
1465	1466	1473	1
1465	1468	1469	1
1465	1468	1474	1
1465	1471	1472	1
1468	1465	1471	1
1468	1469	1470	1
1468	1469	1476	1
1469	1468	1474	1
1469	1470	1475	1
1469	1476	1478	1
1470	1469	1476	1
1470	1467	1477	1
1477	1480	1481	1
1479	1477	1480	1
7013	7016	7017	1
7013	7016	7022	1
7013	7014	7015	1
7013	7014	7021	1
7013	7019	7020	1
7016	7017	7018	1
7016	7017	7024	1
7014	7013	7016	1
7016	7013	7019	1
7017	7016	7022	1
7015	7018	7017	1
7017	7018	7023	1
7017	7024	7026	1
7018	7017	7024	1
7014	7015	7018	1
7018	7015	7025	1
7015	7018	7023	1
7015	7014	7021	1
7015	7025	7027	1
7014	7015	7025	1
7014	7013	7019	1
7028	7029	7030	1
7030	7029	7036	1
7030	7033	7032	1
7030	7033	7038	1
7030	7040	7042	1
7029	7028	7031	1
7029	7028	7034	1
7029	7030	7033	1
7029	7030	7040	1
7028	7029	7036	1
7028	7031	7032	1
7028	7031	7037	1
7028	7034	7035	1
7031	7028	7034	1
7031	7032	7033	1
7031	7032	7039	1
7032	7031	7037	1
7032	7033	7038	1
7032	7039	7041	1
7033	7032	7039	1
7033	7030	7040	1
7057	7058	7059	1
7057	7058	7065	1
7057	7060	7061	1
7057	7060	7066	1
7057	7063	7064	1
7058	7059	7062	1
7058	7059	7069	1
7058	7057	7060	1
7058	7057	7063	1
7059	7058	7065	1
7059	7062	7061	1
7059	7062	7067	1
7059	7069	7071	1
7062	7059	7069	1
7060	7061	7062	1
7062	7061	7068	1
7061	7062	7067	1
7061	7060	7066	1
7061	7068	7070	1
7060	7061	7068	1
7060	7057	7063	1
7086	7087	7088	1
7086	7087	7094	1
7086	7089	7090	1
7086	7089	7095	1
7086	7092	7093	1
7087	7088	7091	1
7087	7088	7098	1
7087	7086	7089	1
7087	7086	7092	1
7088	7087	7094	1
7088	7091	7090	1
7088	7091	7096	1
7088	7098	7100	1
7091	7088	7098	1
7089	7090	7091	1
7091	7090	7097	1
7090	7091	7096	1
7090	7089	7095	1
7090	7097	7099	1
7089	7090	7097	1
7089	7086	7092	1
7115	7118	7119	1
7115	7118	7124	1
7115	7116	7117	1
7115	7116	7123	1
7115	7121	7122	1
7118	7119	7120	1
7118	7119	7126	1
7118	7115	7116	1
7118	7115	7121	1
7119	7118	7124	1
7119	7120	7117	1
7119	7120	7125	1
7119	7126	7128	1
7120	7119	7126	1
7116	7117	7120	1
7120	7117	7127	1
7117	7120	7125	1
7117	7116	7123	1
7117	7127	7129	1
7116	7117	7127	1
7116	7115	7121	1
7144	7147	7148	1
7144	7147	7153	1
7144	7145	7146	1
7144	7145	7152	1
7144	7150	7151	1
7147	7148	7149	1
7147	7148	7155	1
7147	7144	7145	1
7147	7144	7150	1
7148	7147	7153	1
7148	7149	7146	1
7148	7149	7154	1
7148	7155	7157	1
7149	7148	7155	1
7145	7146	7149	1
7149	7146	7156	1
7146	7149	7154	1
7146	7145	7152	1
7146	7156	7158	1
7145	7146	7156	1
7145	7144	7150	1
1512	1513	1514	1
1512	1513	1523	1
1512	1517	1516	1
1512	1517	1525	1
1512	1510	1511	1
1513	1514	1515	1
1513	1514	1520	1
1513	1512	1517	1
1513	1512	1510	1
1514	1513	1523	1
1514	1515	1516	1
1514	1515	1524	1
1514	1520	1521	1
1514	1520	1522	1
1515	1514	1520	1
1517	1516	1515	1
1515	1516	1518	1
1516	1515	1524	1
1516	1517	1525	1
1516	1518	1519	1
1517	1516	1518	1
1517	1512	1510	1
1521	1520	1522	1
7177	7178	7175	1
7177	7178	7183	1
7177	7176	7173	1
7177	7176	7182	1
7177	7184	7186	1
7178	7175	7174	1
7178	7175	7185	1
7178	7177	7176	1
7178	7177	7184	1
7175	7178	7183	1
7175	7174	7173	1
7175	7174	7181	1
7175	7185	7187	1
7174	7175	7185	1
7176	7173	7174	1
7174	7173	7179	1
7173	7174	7181	1
7173	7176	7182	1
7173	7179	7180	1
7176	7173	7179	1
7176	7177	7184	1
7202	7205	7206	1
7206	7205	7211	1
7204	7207	7206	1
7206	7207	7212	1
7206	7213	7215	1
7203	7202	7205	1
7205	7202	7208	1
7205	7206	7207	1
7205	7206	7213	1
7202	7205	7211	1
7202	7203	7204	1
7202	7203	7210	1
7202	7208	7209	1
7203	7202	7208	1
7203	7204	7207	1
7203	7204	7214	1
7204	7203	7210	1
7204	7207	7212	1
7204	7214	7216	1
7207	7204	7214	1
7207	7206	7213	1
72	73	68	1
72	73	82	1
72	71	70	1
72	71	81	1
72	74	75	1
73	68	69	1
73	68	66	1
71	72	73	1
73	72	74	1
68	73	82	1
70	69	68	1
68	69	80	1
68	66	67	1
68	66	65	1
69	68	66	1
71	70	69	1
69	70	76	1
70	69	80	1
70	71	81	1
70	76	77	1
70	76	78	1
71	70	76	1
71	72	74	1
66	65	79	1
77	76	78	1
67	66	65	1
7217	7218	7219	1
7217	7218	7225	1
7217	7220	7221	1
7217	7220	7226	1
7217	7223	7224	1
7218	7219	7222	1
7218	7219	7229	1
7218	7217	7220	1
7218	7217	7223	1
7219	7218	7225	1
7219	7222	7221	1
7219	7222	7227	1
7219	7229	7231	1
7222	7219	7229	1
7220	7221	7222	1
7222	7221	7228	1
7221	7222	7227	1
7221	7220	7226	1
7221	7228	7230	1
7220	7221	7228	1
7220	7217	7223	1
7246	7247	7248	1
7246	7247	7254	1
7246	7249	7250	1
7246	7249	7255	1
7246	7252	7253	1
7247	7248	7251	1
7247	7248	7258	1
7247	7246	7249	1
7247	7246	7252	1
7248	7247	7254	1
7248	7251	7250	1
7248	7251	7256	1
7248	7258	7260	1
7251	7248	7258	1
7249	7250	7251	1
7251	7250	7257	1
7250	7251	7256	1
7250	7249	7255	1
7250	7257	7259	1
7249	7250	7257	1
7249	7246	7252	1
7275	7278	7279	1
7275	7278	7284	1
7275	7276	7277	1
7275	7276	7283	1
7275	7281	7282	1
7278	7279	7280	1
7278	7279	7286	1
7276	7275	7278	1
7278	7275	7281	1
7279	7278	7284	1
7277	7280	7279	1
7279	7280	7285	1
7279	7286	7288	1
7280	7279	7286	1
7276	7277	7280	1
7280	7277	7287	1
7277	7280	7285	1
7277	7276	7283	1
7277	7287	7289	1
7276	7277	7287	1
7276	7275	7281	1
7304	7307	7308	1
7304	7307	7313	1
7304	7305	7306	1
7304	7305	7312	1
7304	7310	7311	1
7307	7308	7309	1
7307	7308	7315	1
7305	7304	7307	1
7307	7304	7310	1
7308	7307	7313	1
7306	7309	7308	1
7308	7309	7314	1
7308	7315	7317	1
7309	7308	7315	1
7305	7306	7309	1
7309	7306	7316	1
7306	7309	7314	1
7306	7305	7312	1
7306	7316	7318	1
7305	7306	7316	1
7305	7304	7310	1
7333	7334	7335	1
7333	7334	7341	1
7333	7336	7337	1
7333	7336	7342	1
7333	7339	7340	1
7334	7335	7338	1
7334	7335	7345	1
7336	7333	7334	1
7334	7333	7339	1
7335	7334	7341	1
7337	7338	7335	1
7335	7338	7343	1
7335	7345	7347	1
7338	7335	7345	1
7336	7337	7338	1
7338	7337	7344	1
7337	7338	7343	1
7337	7336	7342	1
7337	7344	7346	1
7336	7337	7344	1
7336	7333	7339	1
1526	1527	1528	1
1528	1527	1534	1
1528	1531	1530	1
1528	1531	1536	1
1528	1538	1540	1
1528	1538	1541	1
1527	1526	1529	1
1527	1526	1532	1
1527	1528	1531	1
1527	1528	1538	1
1526	1527	1534	1
1526	1529	1530	1
1526	1529	1535	1
1526	1532	1533	1
1529	1526	1532	1
1529	1530	1531	1
1529	1530	1537	1
1530	1529	1535	1
1530	1531	1536	1
1530	1537	1539	1
1531	1530	1537	1
1531	1528	1538	1
1538	1541	1542	1
1540	1538	1541	1
1577	1578	1573	1
1577	1578	1586	1
1577	1576	1575	1
1577	1576	1585	1
1577	1579	1580	1
1578	1573	1574	1
1578	1573	1571	1
1576	1577	1578	1
1578	1577	1579	1
1573	1578	1586	1
1575	1574	1573	1
1573	1574	1584	1
1573	1571	1572	1
1574	1573	1571	1
1576	1575	1574	1
1574	1575	1581	1
1575	1574	1584	1
1575	1576	1585	1
1575	1581	1582	1
1575	1581	1583	1
1576	1575	1581	1
1576	1577	1579	1
1582	1581	1583	1
7362	7363	7364	1
7362	7363	7370	1
7362	7365	7366	1
7362	7365	7371	1
7362	7368	7369	1
7363	7364	7367	1
7363	7364	7374	1
7365	7362	7363	1
7363	7362	7368	1
7364	7363	7370	1
7366	7367	7364	1
7364	7367	7372	1
7364	7374	7376	1
7367	7364	7374	1
7365	7366	7367	1
7367	7366	7373	1
7366	7367	7372	1
7366	7365	7371	1
7366	7373	7375	1
7365	7366	7373	1
7365	7362	7368	1
1587	1588	1589	1
1587	1588	1595	1
1587	1590	1591	1
1587	1590	1596	1
1587	1593	1594	1
1588	1589	1592	1
1588	1589	1599	1
1588	1587	1590	1
1588	1587	1593	1
1589	1588	1595	1
1589	1592	1591	1
1589	1592	1597	1
1589	1599	1601	1
1589	1599	1602	1
1592	1589	1599	1
1590	1591	1592	1
1592	1591	1598	1
1591	1592	1597	1
1591	1590	1596	1
1591	1598	1600	1
1590	1591	1598	1
1590	1587	1593	1
1599	1602	1603	1
1601	1599	1602	1
1634	1635	1636	1
1636	1635	1645	1
1636	1637	1638	1
1636	1637	1646	1
1636	1642	1643	1
1636	1642	1644	1
1635	1634	1639	1
1635	1634	1632	1
1635	1636	1637	1
1635	1636	1642	1
1634	1635	1645	1
1634	1639	1638	1
1634	1639	1647	1
1634	1632	1633	1
1639	1634	1632	1
1639	1638	1637	1
1639	1638	1640	1
1638	1639	1647	1
1638	1637	1646	1
1638	1640	1641	1
1637	1638	1640	1
1637	1636	1642	1
1643	1642	1644	1
7377	7380	7381	1
7377	7380	7386	1
7377	7378	7379	1
7377	7378	7385	1
7377	7383	7384	1
7380	7381	7382	1
7380	7381	7388	1
7378	7377	7380	1
7380	7377	7383	1
7381	7380	7386	1
7379	7382	7381	1
7381	7382	7387	1
7381	7388	7390	1
7382	7381	7388	1
7378	7379	7382	1
7382	7379	7389	1
7379	7382	7387	1
7379	7378	7385	1
7379	7389	7391	1
7378	7379	7389	1
7378	7377	7383	1
104	103	102	1
102	103	113	1
102	101	100	1
102	101	112	1
102	108	109	1
102	108	110	1
103	104	105	1
103	104	106	1
103	102	101	1
103	102	108	1
104	103	113	1
104	105	100	1
104	105	114	1
104	106	107	1
105	104	106	1
105	100	101	1
105	100	98	1
100	105	114	1
100	101	112	1
100	98	99	1
100	98	97	1
101	100	98	1
101	102	108	1
98	97	111	1
99	98	97	1
109	108	110	1
7392	7395	7396	1
7392	7395	7401	1
7392	7393	7394	1
7392	7393	7400	1
7392	7398	7399	1
7395	7396	7397	1
7395	7396	7403	1
7393	7392	7395	1
7395	7392	7398	1
7396	7395	7401	1
7394	7397	7396	1
7396	7397	7402	1
7396	7403	7405	1
7397	7396	7403	1
7393	7394	7397	1
7397	7394	7404	1
7394	7397	7402	1
7394	7393	7400	1
7394	7404	7406	1
7393	7394	7404	1
7393	7392	7398	1
7421	7424	7425	1
7421	7424	7430	1
7421	7422	7423	1
7421	7422	7429	1
7421	7427	7428	1
7424	7425	7426	1
7424	7425	7432	1
7422	7421	7424	1
7424	7421	7427	1
7425	7424	7430	1
7423	7426	7425	1
7425	7426	7431	1
7425	7432	7434	1
7426	7425	7432	1
7422	7423	7426	1
7426	7423	7433	1
7423	7426	7431	1
7423	7422	7429	1
7423	7433	7435	1
7422	7423	7433	1
7422	7421	7427	1
7450	7453	7454	1
7450	7453	7459	1
7450	7451	7452	1
7450	7451	7458	1
7450	7456	7457	1
7453	7454	7455	1
7453	7454	7461	1
7451	7450	7453	1
7453	7450	7456	1
7454	7453	7459	1
7452	7455	7454	1
7454	7455	7460	1
7454	7461	7463	1
7455	7454	7461	1
7451	7452	7455	1
7455	7452	7462	1
7452	7455	7460	1
7452	7451	7458	1
7452	7462	7464	1
7451	7452	7462	1
7451	7450	7456	1
7479	7482	7483	1
7479	7482	7488	1
7479	7480	7481	1
7479	7480	7487	1
7479	7485	7486	1
7482	7483	7484	1
7482	7483	7490	1
7480	7479	7482	1
7482	7479	7485	1
7483	7482	7488	1
7481	7484	7483	1
7483	7484	7489	1
7483	7490	7492	1
7484	7483	7490	1
7480	7481	7484	1
7484	7481	7491	1
7481	7484	7489	1
7481	7480	7487	1
7481	7491	7493	1
7480	7481	7491	1
7480	7479	7485	1
7494	7495	7496	1
7494	7495	7502	1
7494	7497	7498	1
7494	7497	7503	1
7494	7500	7501	1
7495	7496	7499	1
7495	7496	7506	1
7495	7494	7497	1
7495	7494	7500	1
7496	7495	7502	1
7496	7499	7498	1
7496	7499	7504	1
7496	7506	7508	1
7499	7496	7506	1
7497	7498	7499	1
7499	7498	7505	1
7498	7499	7504	1
7498	7497	7503	1
7498	7505	7507	1
7497	7498	7505	1
7497	7494	7500	1
7523	7526	7527	1
7523	7526	7532	1
7523	7524	7525	1
7523	7524	7531	1
7523	7529	7530	1
7526	7527	7528	1
7526	7527	7534	1
7526	7523	7524	1
7526	7523	7529	1
7527	7526	7532	1
7527	7528	7525	1
7527	7528	7533	1
7527	7534	7536	1
7528	7527	7534	1
7524	7525	7528	1
7528	7525	7535	1
7525	7528	7533	1
7525	7524	7531	1
7525	7535	7537	1
7524	7525	7535	1
7524	7523	7529	1
1648	1651	1652	1
1648	1651	1657	1
1648	1649	1650	1
1648	1649	1656	1
1648	1654	1655	1
1651	1652	1653	1
1651	1652	1659	1
1649	1648	1651	1
1651	1648	1654	1
1652	1651	1657	1
1650	1653	1652	1
1652	1653	1658	1
1652	1659	1661	1
1653	1652	1659	1
1649	1650	1653	1
1653	1650	1660	1
1650	1653	1658	1
1650	1649	1656	1
1650	1660	1662	1
1650	1660	1663	1
1649	1650	1660	1
1649	1648	1654	1
1660	1663	1664	1
1662	1660	1663	1
7552	7555	7556	1
7552	7555	7561	1
7552	7553	7554	1
7552	7553	7560	1
7552	7558	7559	1
7555	7556	7557	1
7555	7556	7563	1
7555	7552	7553	1
7555	7552	7558	1
7556	7555	7561	1
7556	7557	7554	1
7556	7557	7562	1
7556	7563	7565	1
7557	7556	7563	1
7553	7554	7557	1
7557	7554	7564	1
7554	7557	7562	1
7554	7553	7560	1
7554	7564	7566	1
7553	7554	7564	1
7553	7552	7558	1
7567	7568	7569	1
7567	7568	7575	1
7567	7570	7571	1
7567	7570	7576	1
7567	7573	7574	1
7568	7569	7572	1
7568	7569	7579	1
7568	7567	7570	1
7568	7567	7573	1
7569	7568	7575	1
7569	7572	7571	1
7569	7572	7577	1
7569	7579	7581	1
7572	7569	7579	1
7570	7571	7572	1
7572	7571	7578	1
7571	7572	7577	1
7571	7570	7576	1
7571	7578	7580	1
7570	7571	7578	1
7570	7567	7573	1
7600	7601	7598	1
7600	7601	7606	1
7600	7599	7596	1
7600	7599	7605	1
7600	7607	7609	1
7601	7598	7597	1
7601	7598	7608	1
7601	7600	7599	1
7601	7600	7607	1
7598	7601	7606	1
7598	7597	7596	1
7598	7597	7604	1
7598	7608	7610	1
7597	7598	7608	1
7599	7596	7597	1
7597	7596	7602	1
7596	7597	7604	1
7596	7599	7605	1
7596	7602	7603	1
7599	7596	7602	1
7599	7600	7607	1
7625	7628	7629	1
7625	7628	7634	1
7625	7626	7627	1
7625	7626	7633	1
7625	7631	7632	1
7628	7629	7630	1
7628	7629	7636	1
7626	7625	7628	1
7628	7625	7631	1
7629	7628	7634	1
7627	7630	7629	1
7629	7630	7635	1
7629	7636	7638	1
7630	7629	7636	1
7626	7627	7630	1
7630	7627	7637	1
7627	7630	7635	1
7627	7626	7633	1
7627	7637	7639	1
7626	7627	7637	1
7626	7625	7631	1
1679	1682	1683	1
1679	1682	1688	1
1679	1680	1681	1
1679	1680	1687	1
1679	1685	1686	1
1682	1683	1684	1
1682	1683	1690	1
1680	1679	1682	1
1682	1679	1685	1
1683	1682	1688	1
1681	1684	1683	1
1683	1684	1689	1
1683	1690	1692	1
1684	1683	1690	1
1680	1681	1684	1
1684	1681	1691	1
1681	1684	1689	1
1681	1680	1687	1
1681	1691	1693	1
1681	1691	1694	1
1680	1681	1691	1
1680	1679	1685	1
1691	1694	1695	1
1693	1691	1694	1
7640	7643	7644	1
7640	7643	7649	1
7640	7641	7642	1
7640	7641	7648	1
7640	7646	7647	1
7643	7644	7645	1
7643	7644	7651	1
7641	7640	7643	1
7643	7640	7646	1
7644	7643	7649	1
7642	7645	7644	1
7644	7645	7650	1
7644	7651	7653	1
7645	7644	7651	1
7641	7642	7645	1
7645	7642	7652	1
7642	7645	7650	1
7642	7641	7648	1
7642	7652	7654	1
7641	7642	7652	1
7641	7640	7646	1
7669	7672	7673	1
7669	7672	7678	1
7669	7670	7671	1
7669	7670	7677	1
7669	7675	7676	1
7672	7673	7674	1
7672	7673	7680	1
7670	7669	7672	1
7672	7669	7675	1
7673	7672	7678	1
7671	7674	7673	1
7673	7674	7679	1
7673	7680	7682	1
7674	7673	7680	1
7670	7671	7674	1
7674	7671	7681	1
7671	7674	7679	1
7671	7670	7677	1
7671	7681	7683	1
7670	7671	7681	1
7670	7669	7675	1
7698	7701	7702	1
7698	7701	7707	1
7698	7699	7700	1
7698	7699	7706	1
7698	7704	7705	1
7701	7702	7703	1
7701	7702	7709	1
7699	7698	7701	1
7701	7698	7704	1
7702	7701	7707	1
7700	7703	7702	1
7702	7703	7708	1
7702	7709	7711	1
7703	7702	7709	1
7699	7700	7703	1
7703	7700	7710	1
7700	7703	7708	1
7700	7699	7706	1
7700	7710	7712	1
7699	7700	7710	1
7699	7698	7704	1
1710	1711	1712	1
1710	1711	1718	1
1710	1713	1714	1
1710	1713	1719	1
1710	1716	1717	1
1711	1712	1715	1
1711	1712	1722	1
1711	1710	1713	1
1711	1710	1716	1
1712	1711	1718	1
1712	1715	1714	1
1712	1715	1720	1
1712	1722	1724	1
1712	1722	1725	1
1715	1712	1722	1
1713	1714	1715	1
1715	1714	1721	1
1714	1715	1720	1
1714	1713	1719	1
1714	1721	1723	1
1713	1714	1721	1
1713	1710	1716	1
1722	1725	1726	1
1724	1722	1725	1
7731	7732	7729	1
7731	7732	7737	1
7727	7730	7731	1
7731	7730	7736	1
7731	7738	7740	1
7728	7729	7732	1
7732	7729	7739	1
7730	7731	7732	1
7732	7731	7738	1
7729	7732	7737	1
7727	7728	7729	1
7729	7728	7735	1
7729	7739	7741	1
7728	7729	7739	1
7730	7727	7728	1
7728	7727	7733	1
7727	7728	7735	1
7727	7730	7736	1
7727	7733	7734	1
7730	7727	7733	1
7730	7731	7738	1
7756	7757	7758	1
7756	7757	7764	1
7756	7759	7760	1
7756	7759	7765	1
7756	7762	7763	1
7757	7758	7761	1
7757	7758	7768	1
7759	7756	7757	1
7757	7756	7762	1
7758	7757	7764	1
7760	7761	7758	1
7758	7761	7766	1
7758	7768	7770	1
7761	7758	7768	1
7759	7760	7761	1
7761	7760	7767	1
7760	7761	7766	1
7760	7759	7765	1
7760	7767	7769	1
7759	7760	7767	1
7759	7756	7762	1
7785	7786	7787	1
7785	7786	7793	1
7785	7788	7789	1
7785	7788	7794	1
7785	7791	7792	1
7786	7787	7790	1
7786	7787	7797	1
7786	7785	7788	1
7786	7785	7791	1
7787	7786	7793	1
7787	7790	7789	1
7787	7790	7795	1
7787	7797	7799	1
7790	7787	7797	1
7788	7789	7790	1
7790	7789	7796	1
7789	7790	7795	1
7789	7788	7794	1
7789	7796	7798	1
7788	7789	7796	1
7788	7785	7791	1
1741	1742	1743	1
1741	1742	1749	1
1741	1744	1745	1
1741	1744	1750	1
1741	1747	1748	1
1742	1743	1746	1
1742	1743	1753	1
1742	1741	1744	1
1742	1741	1747	1
1743	1742	1749	1
1743	1746	1745	1
1743	1746	1751	1
1743	1753	1755	1
1743	1753	1756	1
1746	1743	1753	1
1744	1745	1746	1
1746	1745	1752	1
1745	1746	1751	1
1745	1744	1750	1
1745	1752	1754	1
1744	1745	1752	1
1744	1741	1747	1
1753	1756	1757	1
1755	1753	1756	1
7814	7815	7816	1
7814	7815	7822	1
7814	7817	7818	1
7814	7817	7823	1
7814	7820	7821	1
7815	7816	7819	1
7815	7816	7826	1
7815	7814	7817	1
7815	7814	7820	1
7816	7815	7822	1
7816	7819	7818	1
7816	7819	7824	1
7816	7826	7828	1
7819	7816	7826	1
7817	7818	7819	1
7819	7818	7825	1
7818	7819	7824	1
7818	7817	7823	1
7818	7825	7827	1
7817	7818	7825	1
7817	7814	7820	1
7843	7844	7845	1
7843	7844	7851	1
7843	7846	7847	1
7843	7846	7852	1
7843	7849	7850	1
7844	7845	7848	1
7844	7845	7855	1
7844	7843	7846	1
7844	7843	7849	1
7845	7844	7851	1
7845	7848	7847	1
7845	7848	7853	1
7845	7855	7857	1
7848	7845	7855	1
7846	7847	7848	1
7848	7847	7854	1
7847	7848	7853	1
7847	7846	7852	1
7847	7854	7856	1
7846	7847	7854	1
7846	7843	7849	1
7872	7873	7874	1
7872	7873	7880	1
7872	7875	7876	1
7872	7875	7881	1
7872	7878	7879	1
7873	7874	7877	1
7873	7874	7884	1
7873	7872	7875	1
7873	7872	7878	1
7874	7873	7880	1
7874	7877	7876	1
7874	7877	7882	1
7874	7884	7886	1
7877	7874	7884	1
7875	7876	7877	1
7877	7876	7883	1
7876	7877	7882	1
7876	7875	7881	1
7876	7883	7885	1
7875	7876	7883	1
7875	7872	7878	1
7901	7902	7903	1
7901	7902	7909	1
7901	7904	7905	1
7901	7904	7910	1
7901	7907	7908	1
7902	7903	7906	1
7902	7903	7913	1
7902	7901	7904	1
7902	7901	7907	1
7903	7902	7909	1
7903	7906	7905	1
7903	7906	7911	1
7903	7913	7915	1
7906	7903	7913	1
7904	7905	7906	1
7906	7905	7912	1
7905	7906	7911	1
7905	7904	7910	1
7905	7912	7914	1
7904	7905	7912	1
7904	7901	7907	1
7930	7933	7934	1
7930	7933	7939	1
7930	7931	7932	1
7930	7931	7938	1
7930	7936	7937	1
7933	7934	7935	1
7933	7934	7941	1
7931	7930	7933	1
7933	7930	7936	1
7934	7933	7939	1
7932	7935	7934	1
7934	7935	7940	1
7934	7941	7943	1
7935	7934	7941	1
7931	7932	7935	1
7935	7932	7942	1
7932	7935	7940	1
7932	7931	7938	1
7932	7942	7944	1
7931	7932	7942	1
7931	7930	7936	1
1772	1773	1774	1
1772	1773	1780	1
1772	1775	1776	1
1772	1775	1781	1
1772	1778	1779	1
1773	1774	1777	1
1773	1774	1784	1
1773	1772	1775	1
1773	1772	1778	1
1774	1773	1780	1
1774	1777	1776	1
1774	1777	1782	1
1774	1784	1786	1
1774	1784	1787	1
1777	1774	1784	1
1775	1776	1777	1
1777	1776	1783	1
1776	1777	1782	1
1776	1775	1781	1
1776	1783	1785	1
1775	1776	1783	1
1775	1772	1778	1
1784	1787	1788	1
1786	1784	1787	1
7945	7946	7947	1
7945	7946	7953	1
7945	7948	7949	1
7945	7948	7954	1
7945	7951	7952	1
7946	7947	7950	1
7946	7947	7957	1
7948	7945	7946	1
7946	7945	7951	1
7947	7946	7953	1
7949	7950	7947	1
7947	7950	7955	1
7947	7957	7959	1
7950	7947	7957	1
7948	7949	7950	1
7950	7949	7956	1
7949	7950	7955	1
7949	7948	7954	1
7949	7956	7958	1
7948	7949	7956	1
7948	7945	7951	1
7974	7975	7976	1
7974	7975	7982	1
7974	7977	7978	1
7974	7977	7983	1
7974	7980	7981	1
7975	7976	7979	1
7975	7976	7986	1
7977	7974	7975	1
7975	7974	7980	1
7976	7975	7982	1
7978	7979	7976	1
7976	7979	7984	1
7976	7986	7988	1
7979	7976	7986	1
7977	7978	7979	1
7979	7978	7985	1
7978	7979	7984	1
7978	7977	7983	1
7978	7985	7987	1
7977	7978	7985	1
7977	7974	7980	1
8003	8006	8007	1
8003	8006	8012	1
8003	8004	8005	1
8003	8004	8011	1
8003	8009	8010	1
8006	8007	8008	1
8006	8007	8014	1
8004	8003	8006	1
8006	8003	8009	1
8007	8006	8012	1
8005	8008	8007	1
8007	8008	8013	1
8007	8014	8016	1
8008	8007	8014	1
8004	8005	8008	1
8008	8005	8015	1
8005	8008	8013	1
8005	8004	8011	1
8005	8015	8017	1
8004	8005	8015	1
8004	8003	8009	1
8018	8021	8022	1
8018	8021	8027	1
8018	8019	8020	1
8018	8019	8026	1
8018	8024	8025	1
8021	8022	8023	1
8021	8022	8029	1
8019	8018	8021	1
8021	8018	8024	1
8022	8021	8027	1
8020	8023	8022	1
8022	8023	8028	1
8022	8029	8031	1
8023	8022	8029	1
8019	8020	8023	1
8023	8020	8030	1
8020	8023	8028	1
8020	8019	8026	1
8020	8030	8032	1
8019	8020	8030	1
8019	8018	8024	1
8047	8048	8049	1
8047	8048	8055	1
8047	8050	8051	1
8047	8050	8056	1
8047	8053	8054	1
8048	8049	8052	1
8048	8049	8059	1
8048	8047	8050	1
8048	8047	8053	1
8049	8048	8055	1
8049	8052	8051	1
8049	8052	8057	1
8049	8059	8061	1
8052	8049	8059	1
8050	8051	8052	1
8052	8051	8058	1
8051	8052	8057	1
8051	8050	8056	1
8051	8058	8060	1
8050	8051	8058	1
8050	8047	8053	1
8076	8077	8078	1
8076	8077	8084	1
8076	8079	8080	1
8076	8079	8085	1
8076	8082	8083	1
8077	8078	8081	1
8077	8078	8088	1
8077	8076	8079	1
8077	8076	8082	1
8078	8077	8084	1
8078	8081	8080	1
8078	8081	8086	1
8078	8088	8090	1
8081	8078	8088	1
8079	8080	8081	1
8081	8080	8087	1
8080	8081	8086	1
8080	8079	8085	1
8080	8087	8089	1
8079	8080	8087	1
8079	8076	8082	1
1807	1806	1803	1
1807	1806	1812	1
1807	1808	1805	1
1807	1808	1813	1
1807	1814	1816	1
1806	1803	1804	1
1806	1803	1809	1
1808	1807	1806	1
1806	1807	1814	1
1803	1806	1812	1
1805	1804	1803	1
1803	1804	1811	1
1803	1809	1810	1
1804	1803	1809	1
1808	1805	1804	1
1804	1805	1815	1
1805	1804	1811	1
1805	1808	1813	1
1805	1815	1817	1
1805	1815	1818	1
1808	1805	1815	1
1808	1807	1814	1
1815	1818	1819	1
1817	1815	1818	1
8091	8092	8093	1
8091	8092	8099	1
8091	8094	8095	1
8091	8094	8100	1
8091	8097	8098	1
8092	8093	8096	1
8092	8093	8103	1
8092	8091	8094	1
8092	8091	8097	1
8093	8092	8099	1
8093	8096	8095	1
8093	8096	8101	1
8093	8103	8105	1
8096	8093	8103	1
8094	8095	8096	1
8096	8095	8102	1
8095	8096	8101	1
8095	8094	8100	1
8095	8102	8104	1
8094	8095	8102	1
8094	8091	8097	1
8120	8121	8122	1
8120	8121	8128	1
8120	8123	8124	1
8120	8123	8129	1
8120	8126	8127	1
8121	8122	8125	1
8121	8122	8132	1
8121	8120	8123	1
8121	8120	8126	1
8122	8121	8128	1
8122	8125	8124	1
8122	8125	8130	1
8122	8132	8134	1
8125	8122	8132	1
8123	8124	8125	1
8125	8124	8131	1
8124	8125	8130	1
8124	8123	8129	1
8124	8131	8133	1
8123	8124	8131	1
8123	8120	8126	1
8149	8152	8153	1
8149	8152	8158	1
8149	8150	8151	1
8149	8150	8157	1
8149	8155	8156	1
8152	8153	8154	1
8152	8153	8160	1
8152	8149	8150	1
8152	8149	8155	1
8153	8152	8158	1
8153	8154	8151	1
8153	8154	8159	1
8153	8160	8162	1
8154	8153	8160	1
8150	8151	8154	1
8154	8151	8161	1
8151	8154	8159	1
8151	8150	8157	1
8151	8161	8163	1
8150	8151	8161	1
8150	8149	8155	1
8178	8181	8182	1
8178	8181	8187	1
8178	8179	8180	1
8178	8179	8186	1
8178	8184	8185	1
8181	8182	8183	1
8181	8182	8189	1
8181	8178	8179	1
8181	8178	8184	1
8182	8181	8187	1
8182	8183	8180	1
8182	8183	8188	1
8182	8189	8191	1
8183	8182	8189	1
8179	8180	8183	1
8183	8180	8190	1
8180	8183	8188	1
8180	8179	8186	1
8180	8190	8192	1
8179	8180	8190	1
8179	8178	8184	1
8193	8196	8197	1
8193	8196	8202	1
8193	8194	8195	1
8193	8194	8201	1
8193	8199	8200	1
8196	8197	8198	1
8196	8197	8204	1
8194	8193	8196	1
8196	8193	8199	1
8197	8196	8202	1
8195	8198	8197	1
8197	8198	8203	1
8197	8204	8206	1
8198	8197	8204	1
8194	8195	8198	1
8198	8195	8205	1
8195	8198	8203	1
8195	8194	8201	1
8195	8205	8207	1
8194	8195	8205	1
8194	8193	8199	1
8208	8209	8210	1
8208	8209	8216	1
8208	8211	8212	1
8208	8211	8217	1
8208	8214	8215	1
8209	8210	8213	1
8209	8210	8220	1
8209	8208	8211	1
8209	8208	8214	1
8210	8209	8216	1
8210	8213	8212	1
8210	8213	8218	1
8210	8220	8222	1
8213	8210	8220	1
8211	8212	8213	1
8213	8212	8219	1
8212	8213	8218	1
8212	8211	8217	1
8212	8219	8221	1
8211	8212	8219	1
8211	8208	8214	1
8237	8238	8239	1
8239	8238	8245	1
8239	8242	8241	1
8239	8242	8247	1
8239	8249	8251	1
8238	8237	8240	1
8238	8237	8243	1
8238	8239	8242	1
8238	8239	8249	1
8237	8238	8245	1
8237	8240	8241	1
8237	8240	8246	1
8237	8243	8244	1
8240	8237	8243	1
8240	8241	8242	1
8240	8241	8248	1
8241	8240	8246	1
8241	8242	8247	1
8241	8248	8250	1
8242	8241	8248	1
8242	8239	8249	1
1850	1851	1852	1
1850	1851	1861	1
1850	1855	1854	1
1850	1855	1863	1
1850	1848	1849	1
1851	1852	1853	1
1851	1852	1858	1
1851	1850	1855	1
1851	1850	1848	1
1852	1851	1861	1
1852	1853	1854	1
1852	1853	1862	1
1852	1858	1859	1
1852	1858	1860	1
1853	1852	1858	1
1855	1854	1853	1
1853	1854	1856	1
1854	1853	1862	1
1854	1855	1863	1
1854	1856	1857	1
1855	1854	1856	1
1855	1850	1848	1
1859	1858	1860	1
1864	1865	1866	1
1864	1865	1872	1
1864	1867	1868	1
1864	1867	1873	1
1864	1870	1871	1
1865	1866	1869	1
1865	1866	1876	1
1865	1864	1867	1
1865	1864	1870	1
1866	1865	1872	1
1866	1869	1868	1
1866	1869	1874	1
1866	1876	1878	1
1866	1876	1879	1
1869	1866	1876	1
1867	1868	1869	1
1869	1868	1875	1
1868	1869	1874	1
1868	1867	1873	1
1868	1875	1877	1
1867	1868	1875	1
1867	1864	1870	1
1876	1879	1880	1
1878	1876	1879	1
8252	8253	8254	1
8252	8253	8260	1
8252	8255	8256	1
8252	8255	8261	1
8252	8258	8259	1
8253	8254	8257	1
8253	8254	8264	1
8253	8252	8255	1
8253	8252	8258	1
8254	8253	8260	1
8254	8257	8256	1
8254	8257	8262	1
8254	8264	8266	1
8257	8254	8264	1
8255	8256	8257	1
8257	8256	8263	1
8256	8257	8262	1
8256	8255	8261	1
8256	8263	8265	1
8255	8256	8263	1
8255	8252	8258	1
1895	1896	1897	1
1897	1896	1903	1
1897	1900	1899	1
1897	1900	1905	1
1897	1907	1909	1
1897	1907	1910	1
1896	1895	1898	1
1896	1895	1901	1
1896	1897	1900	1
1896	1897	1907	1
1895	1896	1903	1
1895	1898	1899	1
1895	1898	1904	1
1895	1901	1902	1
1898	1895	1901	1
1898	1899	1900	1
1898	1899	1906	1
1899	1898	1904	1
1899	1900	1905	1
1899	1906	1908	1
1900	1899	1906	1
1900	1897	1907	1
1907	1910	1911	1
1909	1907	1910	1
1926	1929	1930	1
1926	1929	1935	1
1926	1927	1928	1
1926	1927	1934	1
1926	1932	1933	1
1929	1930	1931	1
1929	1930	1937	1
1927	1926	1929	1
1929	1926	1932	1
1930	1929	1935	1
1928	1931	1930	1
1930	1931	1936	1
1930	1937	1939	1
1931	1930	1937	1
1927	1928	1931	1
1931	1928	1938	1
1928	1931	1936	1
1928	1927	1934	1
1928	1938	1940	1
1928	1938	1941	1
1927	1928	1938	1
1927	1926	1932	1
1938	1941	1942	1
1940	1938	1941	1
136	135	134	1
134	135	145	1
134	133	132	1
134	133	144	1
134	140	141	1
134	140	142	1
135	136	137	1
135	136	138	1
135	134	133	1
135	134	140	1
136	135	145	1
136	137	132	1
136	137	146	1
136	138	139	1
137	136	138	1
137	132	133	1
137	132	130	1
132	137	146	1
132	133	144	1
132	130	131	1
132	130	129	1
133	132	130	1
133	134	140	1
130	129	143	1
131	130	129	1
141	140	142	1
168	167	166	1
166	167	177	1
166	165	164	1
166	165	176	1
166	172	173	1
166	172	174	1
167	168	169	1
167	168	170	1
167	166	165	1
167	166	172	1
168	167	177	1
168	169	164	1
168	169	178	1
168	170	171	1
169	168	170	1
169	164	165	1
169	164	162	1
164	169	178	1
164	165	176	1
164	162	163	1
164	162	161	1
165	164	162	1
165	166	172	1
162	161	175	1
163	162	161	1
173	172	174	1
1958	1959	1960	1
1958	1959	1966	1
1958	1961	1962	1
1958	1961	1967	1
1958	1964	1965	1
1959	1960	1963	1
1959	1960	1970	1
1959	1958	1961	1
1959	1958	1964	1
1960	1959	1966	1
1960	1963	1962	1
1960	1963	1968	1
1960	1970	1972	1
1960	1970	1973	1
1963	1960	1970	1
1961	1962	1963	1
1963	1962	1969	1
1962	1963	1968	1
1962	1961	1967	1
1962	1969	1971	1
1961	1962	1969	1
1961	1958	1964	1
1970	1973	1974	1
1972	1970	1973	1
1989	1990	1991	1
1991	1990	1997	1
1991	1994	1993	1
1991	1994	1999	1
1991	2001	2003	1
1991	2001	2004	1
1990	1989	1992	1
1990	1989	1995	1
1990	1991	1994	1
1990	1991	2001	1
1989	1990	1997	1
1989	1992	1993	1
1989	1992	1998	1
1989	1995	1996	1
1992	1989	1995	1
1992	1993	1994	1
1992	1993	2000	1
1993	1992	1998	1
1993	1994	1999	1
1993	2000	2002	1
1994	1993	2000	1
1994	1991	2001	1
2001	2004	2005	1
2003	2001	2004	1
8267	8268	8269	1
8267	8268	8275	1
8267	8270	8271	1
8267	8270	8276	1
8267	8273	8274	1
8268	8269	8272	1
8268	8269	8279	1
8268	8267	8270	1
8268	8267	8273	1
8269	8268	8275	1
8269	8272	8271	1
8269	8272	8277	1
8269	8279	8281	1
8272	8269	8279	1
8270	8271	8272	1
8272	8271	8278	1
8271	8272	8277	1
8271	8270	8276	1
8271	8278	8280	1
8270	8271	8278	1
8270	8267	8273	1
8296	8297	8298	1
8296	8297	8304	1
8296	8299	8300	1
8296	8299	8305	1
8296	8302	8303	1
8297	8298	8301	1
8297	8298	8308	1
8297	8296	8299	1
8297	8296	8302	1
8298	8297	8304	1
8298	8301	8300	1
8298	8301	8306	1
8298	8308	8310	1
8301	8298	8308	1
8299	8300	8301	1
8301	8300	8307	1
8300	8301	8306	1
8300	8299	8305	1
8300	8307	8309	1
8299	8300	8307	1
8299	8296	8302	1
8311	8312	8313	1
8311	8312	8319	1
8311	8314	8315	1
8311	8314	8320	1
8311	8317	8318	1
8312	8313	8316	1
8312	8313	8323	1
8314	8311	8312	1
8312	8311	8317	1
8313	8312	8319	1
8315	8316	8313	1
8313	8316	8321	1
8313	8323	8325	1
8316	8313	8323	1
8314	8315	8316	1
8316	8315	8322	1
8315	8316	8321	1
8315	8314	8320	1
8315	8322	8324	1
8314	8315	8322	1
8314	8311	8317	1
8340	8341	8342	1
8340	8341	8348	1
8340	8343	8344	1
8340	8343	8349	1
8340	8346	8347	1
8341	8342	8345	1
8341	8342	8352	1
8343	8340	8341	1
8341	8340	8346	1
8342	8341	8348	1
8344	8345	8342	1
8342	8345	8350	1
8342	8352	8354	1
8345	8342	8352	1
8343	8344	8345	1
8345	8344	8351	1
8344	8345	8350	1
8344	8343	8349	1
8344	8351	8353	1
8343	8344	8351	1
8343	8340	8346	1
8355	8358	8359	1
8355	8358	8364	1
8355	8356	8357	1
8355	8356	8363	1
8355	8361	8362	1
8358	8359	8360	1
8358	8359	8366	1
8356	8355	8358	1
8358	8355	8361	1
8359	8358	8364	1
8357	8360	8359	1
8359	8360	8365	1
8359	8366	8368	1
8360	8359	8366	1
8356	8357	8360	1
8360	8357	8367	1
8357	8360	8365	1
8357	8356	8363	1
8357	8367	8369	1
8356	8357	8367	1
8356	8355	8361	1
8370	8373	8374	1
8370	8373	8379	1
8370	8371	8372	1
8370	8371	8378	1
8370	8376	8377	1
8373	8374	8375	1
8373	8374	8381	1
8371	8370	8373	1
8373	8370	8376	1
8374	8373	8379	1
8372	8375	8374	1
8374	8375	8380	1
8374	8381	8383	1
8375	8374	8381	1
8371	8372	8375	1
8375	8372	8382	1
8372	8375	8380	1
8372	8371	8378	1
8372	8382	8384	1
8371	8372	8382	1
8371	8370	8376	1
8399	8400	8401	1
8399	8400	8407	1
8399	8402	8403	1
8399	8402	8408	1
8399	8405	8406	1
8400	8401	8404	1
8400	8401	8411	1
8400	8399	8402	1
8400	8399	8405	1
8401	8400	8407	1
8401	8404	8403	1
8401	8404	8409	1
8401	8411	8413	1
8404	8401	8411	1
8402	8403	8404	1
8404	8403	8410	1
8403	8404	8409	1
8403	8402	8408	1
8403	8410	8412	1
8402	8403	8410	1
8402	8399	8405	1
8414	8415	8416	1
8414	8415	8422	1
8414	8417	8418	1
8414	8417	8423	1
8414	8420	8421	1
8415	8416	8419	1
8415	8416	8426	1
8415	8414	8417	1
8415	8414	8420	1
8416	8415	8422	1
8416	8419	8418	1
8416	8419	8424	1
8416	8426	8428	1
8419	8416	8426	1
8417	8418	8419	1
8419	8418	8425	1
8418	8419	8424	1
8418	8417	8423	1
8418	8425	8427	1
8417	8418	8425	1
8417	8414	8420	1
2020	2021	2022	1
2022	2021	2028	1
2022	2025	2024	1
2022	2025	2030	1
2022	2032	2034	1
2022	2032	2035	1
2021	2020	2023	1
2021	2020	2026	1
2021	2022	2025	1
2021	2022	2032	1
2020	2021	2028	1
2020	2023	2024	1
2020	2023	2029	1
2020	2026	2027	1
2023	2020	2026	1
2023	2024	2025	1
2023	2024	2031	1
2024	2023	2029	1
2024	2025	2030	1
2024	2031	2033	1
2025	2024	2031	1
2025	2022	2032	1
2032	2035	2036	1
2034	2032	2035	1
8443	8444	8445	1
8443	8444	8451	1
8443	8446	8447	1
8443	8446	8452	1
8443	8449	8450	1
8444	8445	8448	1
8444	8445	8455	1
8444	8443	8446	1
8444	8443	8449	1
8445	8444	8451	1
8445	8448	8447	1
8445	8448	8453	1
8445	8455	8457	1
8448	8445	8455	1
8446	8447	8448	1
8448	8447	8454	1
8447	8448	8453	1
8447	8446	8452	1
8447	8454	8456	1
8446	8447	8454	1
8446	8443	8449	1
2067	2068	2069	1
2069	2068	2078	1
2069	2070	2071	1
2069	2070	2079	1
2069	2075	2076	1
2069	2075	2077	1
2068	2067	2072	1
2068	2067	2065	1
2068	2069	2070	1
2068	2069	2075	1
2067	2068	2078	1
2067	2072	2071	1
2067	2072	2080	1
2067	2065	2066	1
2072	2067	2065	1
2072	2071	2070	1
2072	2071	2073	1
2071	2072	2080	1
2071	2070	2079	1
2071	2073	2074	1
2070	2071	2073	1
2070	2069	2075	1
2076	2075	2077	1
2081	2082	2083	1
2083	2082	2089	1
2083	2086	2085	1
2083	2086	2091	1
2083	2093	2095	1
2083	2093	2096	1
2082	2081	2084	1
2082	2081	2087	1
2082	2083	2086	1
2082	2083	2093	1
2081	2082	2089	1
2081	2084	2085	1
2081	2084	2090	1
2081	2087	2088	1
2084	2081	2087	1
2084	2085	2086	1
2084	2085	2092	1
2085	2084	2090	1
2085	2086	2091	1
2085	2092	2094	1
2086	2085	2092	1
2086	2083	2093	1
2093	2096	2097	1
2095	2093	2096	1
198	197	196	1
196	197	208	1
200	201	196	1
196	201	210	1
196	194	195	1
196	194	193	1
199	198	197	1
197	198	204	1
201	196	197	1
197	196	194	1
198	197	208	1
200	199	198	1
198	199	209	1
198	204	205	1
198	204	206	1
199	198	204	1
199	200	201	1
199	200	202	1
200	199	209	1
200	201	210	1
200	202	203	1
201	200	202	1
201	196	194	1
194	193	207	1
195	194	193	1
205	204	206	1
8472	8475	8476	1
8472	8475	8481	1
8472	8473	8474	1
8472	8473	8480	1
8472	8478	8479	1
8475	8476	8477	1
8475	8476	8483	1
8473	8472	8475	1
8475	8472	8478	1
8476	8475	8481	1
8474	8477	8476	1
8476	8477	8482	1
8476	8483	8485	1
8477	8476	8483	1
8473	8474	8477	1
8477	8474	8484	1
8474	8477	8482	1
8474	8473	8480	1
8474	8484	8486	1
8473	8474	8484	1
8473	8472	8478	1
8487	8488	8489	1
8487	8488	8495	1
8487	8490	8491	1
8487	8490	8496	1
8487	8493	8494	1
8488	8489	8492	1
8488	8489	8499	1
8490	8487	8488	1
8488	8487	8493	1
8489	8488	8495	1
8491	8492	8489	1
8489	8492	8497	1
8489	8499	8501	1
8492	8489	8499	1
8490	8491	8492	1
8492	8491	8498	1
8491	8492	8497	1
8491	8490	8496	1
8491	8498	8500	1
8490	8491	8498	1
8490	8487	8493	1
8516	8517	8518	1
8516	8517	8524	1
8516	8519	8520	1
8516	8519	8525	1
8516	8522	8523	1
8517	8518	8521	1
8517	8518	8528	1
8519	8516	8517	1
8517	8516	8522	1
8518	8517	8524	1
8520	8521	8518	1
8518	8521	8526	1
8518	8528	8530	1
8521	8518	8528	1
8519	8520	8521	1
8521	8520	8527	1
8520	8521	8526	1
8520	8519	8525	1
8520	8527	8529	1
8519	8520	8527	1
8519	8516	8522	1
8545	8546	8547	1
8545	8546	8553	1
8545	8548	8549	1
8545	8548	8554	1
8545	8551	8552	1
8546	8547	8550	1
8546	8547	8557	1
8546	8545	8548	1
8546	8545	8551	1
8547	8546	8553	1
8547	8550	8549	1
8547	8550	8555	1
8547	8557	8559	1
8550	8547	8557	1
8548	8549	8550	1
8550	8549	8556	1
8549	8550	8555	1
8549	8548	8554	1
8549	8556	8558	1
8548	8549	8556	1
8548	8545	8551	1
2112	2113	2114	1
2112	2113	2120	1
2112	2115	2116	1
2112	2115	2121	1
2112	2118	2119	1
2113	2114	2117	1
2113	2114	2124	1
2113	2112	2115	1
2113	2112	2118	1
2114	2113	2120	1
2114	2117	2116	1
2114	2117	2122	1
2114	2124	2126	1
2114	2124	2127	1
2117	2114	2124	1
2115	2116	2117	1
2117	2116	2123	1
2116	2117	2122	1
2116	2115	2121	1
2116	2123	2125	1
2115	2116	2123	1
2115	2112	2118	1
2124	2127	2128	1
2126	2124	2127	1
8560	8561	8562	1
8562	8561	8568	1
8562	8565	8564	1
8562	8565	8570	1
8562	8572	8574	1
8561	8560	8563	1
8561	8560	8566	1
8561	8562	8565	1
8561	8562	8572	1
8560	8561	8568	1
8560	8563	8564	1
8560	8563	8569	1
8560	8566	8567	1
8563	8560	8566	1
8563	8564	8565	1
8563	8564	8571	1
8564	8563	8569	1
8564	8565	8570	1
8564	8571	8573	1
8565	8564	8571	1
8565	8562	8572	1
8589	8590	8591	1
8589	8590	8597	1
8589	8592	8593	1
8589	8592	8598	1
8589	8595	8596	1
8590	8591	8594	1
8590	8591	8601	1
8590	8589	8592	1
8590	8589	8595	1
8591	8590	8597	1
8591	8594	8593	1
8591	8594	8599	1
8591	8601	8603	1
8594	8591	8601	1
8592	8593	8594	1
8594	8593	8600	1
8593	8594	8599	1
8593	8592	8598	1
8593	8600	8602	1
8592	8593	8600	1
8592	8589	8595	1
8618	8621	8622	1
8618	8621	8627	1
8618	8619	8620	1
8618	8619	8626	1
8618	8624	8625	1
8621	8622	8623	1
8621	8622	8629	1
8619	8618	8621	1
8621	8618	8624	1
8622	8621	8627	1
8620	8623	8622	1
8622	8623	8628	1
8622	8629	8631	1
8623	8622	8629	1
8619	8620	8623	1
8623	8620	8630	1
8620	8623	8628	1
8620	8619	8626	1
8620	8630	8632	1
8619	8620	8630	1
8619	8618	8624	1
8633	8634	8635	1
8633	8634	8641	1
8633	8636	8637	1
8633	8636	8642	1
8633	8639	8640	1
8634	8635	8638	1
8634	8635	8645	1
8634	8633	8636	1
8634	8633	8639	1
8635	8634	8641	1
8635	8638	8637	1
8635	8638	8643	1
8635	8645	8647	1
8638	8635	8645	1
8636	8637	8638	1
8638	8637	8644	1
8637	8638	8643	1
8637	8636	8642	1
8637	8644	8646	1
8636	8637	8644	1
8636	8633	8639	1
8662	8663	8664	1
8662	8663	8670	1
8662	8665	8666	1
8662	8665	8671	1
8662	8668	8669	1
8663	8664	8667	1
8663	8664	8674	1
8663	8662	8665	1
8663	8662	8668	1
8664	8663	8670	1
8664	8667	8666	1
8664	8667	8672	1
8664	8674	8676	1
8667	8664	8674	1
8665	8666	8667	1
8667	8666	8673	1
8666	8667	8672	1
8666	8665	8671	1
8666	8673	8675	1
8665	8666	8673	1
8665	8662	8668	1
8691	8694	8695	1
8691	8694	8700	1
8691	8692	8693	1
8691	8692	8699	1
8691	8697	8698	1
8694	8695	8696	1
8694	8695	8702	1
8694	8691	8692	1
8694	8691	8697	1
8695	8694	8700	1
8695	8696	8693	1
8695	8696	8701	1
8695	8702	8704	1
8696	8695	8702	1
8692	8693	8696	1
8696	8693	8703	1
8693	8696	8701	1
8693	8692	8699	1
8693	8703	8705	1
8692	8693	8703	1
8692	8691	8697	1
8720	8723	8724	1
8720	8723	8729	1
8720	8721	8722	1
8720	8721	8728	1
8720	8726	8727	1
8723	8724	8725	1
8723	8724	8731	1
8723	8720	8721	1
8723	8720	8726	1
8724	8723	8729	1
8724	8725	8722	1
8724	8725	8730	1
8724	8731	8733	1
8725	8724	8731	1
8721	8722	8725	1
8725	8722	8732	1
8722	8725	8730	1
8722	8721	8728	1
8722	8732	8734	1
8721	8722	8732	1
8721	8720	8726	1
8735	8738	8739	1
8735	8738	8744	1
8735	8736	8737	1
8735	8736	8743	1
8735	8741	8742	1
8738	8739	8740	1
8738	8739	8746	1
8736	8735	8738	1
8738	8735	8741	1
8739	8738	8744	1
8737	8740	8739	1
8739	8740	8745	1
8739	8746	8748	1
8740	8739	8746	1
8736	8737	8740	1
8740	8737	8747	1
8737	8740	8745	1
8737	8736	8743	1
8737	8747	8749	1
8736	8737	8747	1
8736	8735	8741	1
8750	8753	8754	1
8750	8753	8759	1
8750	8751	8752	1
8750	8751	8758	1
8750	8756	8757	1
8753	8754	8755	1
8753	8754	8761	1
8751	8750	8753	1
8753	8750	8756	1
8754	8753	8759	1
8752	8755	8754	1
8754	8755	8760	1
8754	8761	8763	1
8755	8754	8761	1
8751	8752	8755	1
8755	8752	8762	1
8752	8755	8760	1
8752	8751	8758	1
8752	8762	8764	1
8751	8752	8762	1
8751	8750	8756	1
8765	8768	8769	1
8765	8768	8774	1
8765	8766	8767	1
8765	8766	8773	1
8765	8771	8772	1
8768	8769	8770	1
8768	8769	8776	1
8766	8765	8768	1
8768	8765	8771	1
8769	8768	8774	1
8767	8770	8769	1
8769	8770	8775	1
8769	8776	8778	1
8770	8769	8776	1
8766	8767	8770	1
8770	8767	8777	1
8767	8770	8775	1
8767	8766	8773	1
8767	8777	8779	1
8766	8767	8777	1
8766	8765	8771	1
8794	8795	8796	1
8794	8795	8802	1
8794	8797	8798	1
8794	8797	8803	1
8794	8800	8801	1
8795	8796	8799	1
8795	8796	8806	1
8795	8794	8797	1
8795	8794	8800	1
8796	8795	8802	1
8796	8799	8798	1
8796	8799	8804	1
8796	8806	8808	1
8799	8796	8806	1
8797	8798	8799	1
8799	8798	8805	1
8798	8799	8804	1
8798	8797	8803	1
8798	8805	8807	1
8797	8798	8805	1
8797	8794	8800	1
8823	8824	8825	1
8823	8824	8831	1
8823	8826	8827	1
8823	8826	8832	1
8823	8829	8830	1
8824	8825	8828	1
8824	8825	8835	1
8824	8823	8826	1
8824	8823	8829	1
8825	8824	8831	1
8825	8828	8827	1
8825	8828	8833	1
8825	8835	8837	1
8828	8825	8835	1
8826	8827	8828	1
8828	8827	8834	1
8827	8828	8833	1
8827	8826	8832	1
8827	8834	8836	1
8826	8827	8834	1
8826	8823	8829	1
8854	8853	8852	1
8854	8853	8860	1
8854	8857	8856	1
8854	8857	8862	1
8854	8864	8866	1
8853	8852	8855	1
8853	8852	8858	1
8853	8854	8857	1
8853	8854	8864	1
8852	8853	8860	1
8852	8855	8856	1
8852	8855	8861	1
8852	8858	8859	1
8855	8852	8858	1
8857	8856	8855	1
8855	8856	8863	1
8856	8855	8861	1
8856	8857	8862	1
8856	8863	8865	1
8857	8856	8863	1
8857	8854	8864	1
8881	8884	8885	1
8881	8884	8890	1
8881	8882	8883	1
8881	8882	8889	1
8881	8887	8888	1
8884	8885	8886	1
8884	8885	8892	1
8884	8881	8882	1
8884	8881	8887	1
8885	8884	8890	1
8885	8886	8883	1
8885	8886	8891	1
8885	8892	8894	1
8886	8885	8892	1
8882	8883	8886	1
8886	8883	8893	1
8883	8886	8891	1
8883	8882	8889	1
8883	8893	8895	1
8882	8883	8893	1
8882	8881	8887	1
8896	8897	8898	1
8896	8897	8904	1
8896	8899	8900	1
8896	8899	8905	1
8896	8902	8903	1
8897	8898	8901	1
8897	8898	8908	1
8899	8896	8897	1
8897	8896	8902	1
8898	8897	8904	1
8900	8901	8898	1
8898	8901	8906	1
8898	8908	8910	1
8901	8898	8908	1
8899	8900	8901	1
8901	8900	8907	1
8900	8901	8906	1
8900	8899	8905	1
8900	8907	8909	1
8899	8900	8907	1
8899	8896	8902	1
8925	8928	8929	1
8925	8928	8934	1
8925	8926	8927	1
8925	8926	8933	1
8925	8931	8932	1
8928	8929	8930	1
8928	8929	8936	1
8926	8925	8928	1
8928	8925	8931	1
8929	8928	8934	1
8927	8930	8929	1
8929	8930	8935	1
8929	8936	8938	1
8930	8929	8936	1
8926	8927	8930	1
8930	8927	8937	1
8927	8930	8935	1
8927	8926	8933	1
8927	8937	8939	1
8926	8927	8937	1
8926	8925	8931	1
8954	8957	8958	1
8954	8957	8963	1
8954	8955	8956	1
8954	8955	8962	1
8954	8960	8961	1
8957	8958	8959	1
8957	8958	8965	1
8955	8954	8957	1
8957	8954	8960	1
8958	8957	8963	1
8956	8959	8958	1
8958	8959	8964	1
8958	8965	8967	1
8959	8958	8965	1
8955	8956	8959	1
8959	8956	8966	1
8956	8959	8964	1
8956	8955	8962	1
8956	8966	8968	1
8955	8956	8966	1
8955	8954	8960	1
8969	8972	8973	1
8969	8972	8978	1
8969	8970	8971	1
8969	8970	8977	1
8969	8975	8976	1
8972	8973	8974	1
8972	8973	8980	1
8970	8969	8972	1
8972	8969	8975	1
8973	8972	8978	1
8971	8974	8973	1
8973	8974	8979	1
8973	8980	8982	1
8974	8973	8980	1
8970	8971	8974	1
8974	8971	8981	1
8971	8974	8979	1
8971	8970	8977	1
8971	8981	8983	1
8970	8971	8981	1
8970	8969	8975	1
8998	8999	9000	1
8998	8999	9006	1
8998	9001	9002	1
8998	9001	9007	1
8998	9004	9005	1
8999	9000	9003	1
8999	9000	9010	1
8999	8998	9001	1
8999	8998	9004	1
9000	8999	9006	1
9000	9003	9002	1
9000	9003	9008	1
9000	9010	9012	1
9003	9000	9010	1
9001	9002	9003	1
9003	9002	9009	1
9002	9003	9008	1
9002	9001	9007	1
9002	9009	9011	1
9001	9002	9009	1
9001	8998	9004	1
9013	9014	9015	1
9013	9014	9021	1
9013	9016	9017	1
9013	9016	9022	1
9013	9019	9020	1
9014	9015	9018	1
9014	9015	9025	1
9014	9013	9016	1
9014	9013	9019	1
9015	9014	9021	1
9015	9018	9017	1
9015	9018	9023	1
9015	9025	9027	1
9018	9015	9025	1
9016	9017	9018	1
9018	9017	9024	1
9017	9018	9023	1
9017	9016	9022	1
9017	9024	9026	1
9016	9017	9024	1
9016	9013	9019	1
9042	9043	9044	1
9042	9043	9050	1
9042	9045	9046	1
9042	9045	9051	1
9042	9048	9049	1
9043	9044	9047	1
9043	9044	9054	1
9043	9042	9045	1
9043	9042	9048	1
9044	9043	9050	1
9044	9047	9046	1
9044	9047	9052	1
9044	9054	9056	1
9047	9044	9054	1
9045	9046	9047	1
9047	9046	9053	1
9046	9047	9052	1
9046	9045	9051	1
9046	9053	9055	1
9045	9046	9053	1
9045	9042	9048	1
9057	9060	9061	1
9057	9060	9066	1
9057	9058	9059	1
9057	9058	9065	1
9057	9063	9064	1
9060	9061	9062	1
9060	9061	9068	1
9060	9057	9058	1
9060	9057	9063	1
9061	9060	9066	1
9061	9062	9059	1
9061	9062	9067	1
9061	9068	9070	1
9062	9061	9068	1
9058	9059	9062	1
9062	9059	9069	1
9059	9062	9067	1
9059	9058	9065	1
9059	9069	9071	1
9058	9059	9069	1
9058	9057	9063	1
9072	9073	9074	1
9072	9073	9080	1
9072	9075	9076	1
9072	9075	9081	1
9072	9078	9079	1
9073	9074	9077	1
9073	9074	9084	1
9075	9072	9073	1
9073	9072	9078	1
9074	9073	9080	1
9076	9077	9074	1
9074	9077	9082	1
9074	9084	9086	1
9077	9074	9084	1
9075	9076	9077	1
9077	9076	9083	1
9076	9077	9082	1
9076	9075	9081	1
9076	9083	9085	1
9075	9076	9083	1
9075	9072	9078	1
2143	2144	2145	1
2143	2144	2151	1
2143	2146	2147	1
2143	2146	2152	1
2143	2149	2150	1
2144	2145	2148	1
2144	2145	2155	1
2144	2143	2146	1
2144	2143	2149	1
2145	2144	2151	1
2145	2148	2147	1
2145	2148	2153	1
2145	2155	2157	1
2145	2155	2158	1
2148	2145	2155	1
2146	2147	2148	1
2148	2147	2154	1
2147	2148	2153	1
2147	2146	2152	1
2147	2154	2156	1
2146	2147	2154	1
2146	2143	2149	1
2155	2158	2159	1
2157	2155	2158	1
2174	2177	2178	1
2174	2177	2183	1
2174	2175	2176	1
2174	2175	2182	1
2174	2180	2181	1
2177	2178	2179	1
2177	2178	2185	1
2175	2174	2177	1
2177	2174	2180	1
2178	2177	2183	1
2176	2179	2178	1
2178	2179	2184	1
2178	2185	2187	1
2179	2178	2185	1
2175	2176	2179	1
2179	2176	2186	1
2176	2179	2184	1
2176	2175	2182	1
2176	2186	2188	1
2176	2186	2189	1
2175	2176	2186	1
2175	2174	2180	1
2186	2189	2190	1
2188	2186	2189	1
9101	9102	9103	1
9101	9102	9109	1
9101	9104	9105	1
9101	9104	9110	1
9101	9107	9108	1
9102	9103	9106	1
9102	9103	9113	1
9102	9101	9104	1
9102	9101	9107	1
9103	9102	9109	1
9103	9106	9105	1
9103	9106	9111	1
9103	9113	9115	1
9106	9103	9113	1
9104	9105	9106	1
9106	9105	9112	1
9105	9106	9111	1
9105	9104	9110	1
9105	9112	9114	1
9104	9105	9112	1
9104	9101	9107	1
9130	9133	9134	1
9134	9133	9139	1
9132	9135	9134	1
9134	9135	9140	1
9134	9141	9143	1
9131	9130	9133	1
9133	9130	9136	1
9133	9134	9135	1
9133	9134	9141	1
9130	9133	9139	1
9130	9131	9132	1
9130	9131	9138	1
9130	9136	9137	1
9131	9130	9136	1
9131	9132	9135	1
9131	9132	9142	1
9132	9131	9138	1
9132	9135	9140	1
9132	9142	9144	1
9135	9132	9142	1
9135	9134	9141	1
9159	9162	9163	1
9159	9162	9168	1
9159	9160	9161	1
9159	9160	9167	1
9159	9165	9166	1
9162	9163	9164	1
9162	9163	9170	1
9160	9159	9162	1
9162	9159	9165	1
9163	9162	9168	1
9161	9164	9163	1
9163	9164	9169	1
9163	9170	9172	1
9164	9163	9170	1
9160	9161	9164	1
9164	9161	9171	1
9161	9164	9169	1
9161	9160	9167	1
9161	9171	9173	1
9160	9161	9171	1
9160	9159	9165	1
2191	2192	2193	1
2191	2192	2199	1
2191	2194	2195	1
2191	2194	2200	1
2191	2197	2198	1
2192	2193	2196	1
2192	2193	2203	1
2192	2191	2194	1
2192	2191	2197	1
2193	2192	2199	1
2193	2196	2195	1
2193	2196	2201	1
2193	2203	2205	1
2193	2203	2206	1
2196	2193	2203	1
2194	2195	2196	1
2196	2195	2202	1
2195	2196	2201	1
2195	2194	2200	1
2195	2202	2204	1
2194	2195	2202	1
2194	2191	2197	1
2203	2206	2207	1
2205	2203	2206	1
9188	9191	9192	1
9188	9191	9197	1
9188	9189	9190	1
9188	9189	9196	1
9188	9194	9195	1
9191	9192	9193	1
9191	9192	9199	1
9189	9188	9191	1
9191	9188	9194	1
9192	9191	9197	1
9190	9193	9192	1
9192	9193	9198	1
9192	9199	9201	1
9193	9192	9199	1
9189	9190	9193	1
9193	9190	9200	1
9190	9193	9198	1
9190	9189	9196	1
9190	9200	9202	1
9189	9190	9200	1
9189	9188	9194	1
9217	9220	9221	1
9217	9220	9226	1
9217	9218	9219	1
9217	9218	9225	1
9217	9223	9224	1
9220	9221	9222	1
9220	9221	9228	1
9218	9217	9220	1
9220	9217	9223	1
9221	9220	9226	1
9219	9222	9221	1
9221	9222	9227	1
9221	9228	9230	1
9222	9221	9228	1
9218	9219	9222	1
9222	9219	9229	1
9219	9222	9227	1
9219	9218	9225	1
9219	9229	9231	1
9218	9219	9229	1
9218	9217	9223	1
9246	9249	9250	1
9246	9249	9255	1
9246	9247	9248	1
9246	9247	9254	1
9246	9252	9253	1
9249	9250	9251	1
9249	9250	9257	1
9247	9246	9249	1
9249	9246	9252	1
9250	9249	9255	1
9248	9251	9250	1
9250	9251	9256	1
9250	9257	9259	1
9251	9250	9257	1
9247	9248	9251	1
9251	9248	9258	1
9248	9251	9256	1
9248	9247	9254	1
9248	9258	9260	1
9247	9248	9258	1
9247	9246	9252	1
9279	9278	9275	1
9279	9278	9284	1
9279	9280	9277	1
9279	9280	9285	1
9279	9286	9288	1
9278	9275	9276	1
9278	9275	9281	1
9278	9279	9280	1
9278	9279	9286	1
9275	9278	9284	1
9275	9276	9277	1
9275	9276	9283	1
9275	9281	9282	1
9276	9275	9281	1
9280	9277	9276	1
9276	9277	9287	1
9277	9276	9283	1
9277	9280	9285	1
9277	9287	9289	1
9280	9277	9287	1
9280	9279	9286	1
9304	9307	9308	1
9304	9307	9313	1
9304	9305	9306	1
9304	9305	9312	1
9304	9310	9311	1
9307	9308	9309	1
9307	9308	9315	1
9307	9304	9305	1
9307	9304	9310	1
9308	9307	9313	1
9308	9309	9306	1
9308	9309	9314	1
9308	9315	9317	1
9309	9308	9315	1
9305	9306	9309	1
9309	9306	9316	1
9306	9309	9314	1
9306	9305	9312	1
9306	9316	9318	1
9305	9306	9316	1
9305	9304	9310	1
9333	9334	9335	1
9333	9334	9341	1
9333	9336	9337	1
9333	9336	9342	1
9333	9339	9340	1
9334	9335	9338	1
9334	9335	9345	1
9334	9333	9336	1
9334	9333	9339	1
9335	9334	9341	1
9335	9338	9337	1
9335	9338	9343	1
9335	9345	9347	1
9338	9335	9345	1
9336	9337	9338	1
9338	9337	9344	1
9337	9338	9343	1
9337	9336	9342	1
9337	9344	9346	1
9336	9337	9344	1
9336	9333	9339	1
9362	9363	9364	1
9362	9363	9370	1
9362	9365	9366	1
9362	9365	9371	1
9362	9368	9369	1
9363	9364	9367	1
9363	9364	9374	1
9363	9362	9365	1
9363	9362	9368	1
9364	9363	9370	1
9364	9367	9366	1
9364	9367	9372	1
9364	9374	9376	1
9367	9364	9374	1
9365	9366	9367	1
9367	9366	9373	1
9366	9367	9372	1
9366	9365	9371	1
9366	9373	9375	1
9365	9366	9373	1
9365	9362	9368	1
9391	9394	9395	1
9391	9394	9400	1
9391	9392	9393	1
9391	9392	9399	1
9391	9397	9398	1
9394	9395	9396	1
9394	9395	9402	1
9392	9391	9394	1
9394	9391	9397	1
9395	9394	9400	1
9393	9396	9395	1
9395	9396	9401	1
9395	9402	9404	1
9396	9395	9402	1
9392	9393	9396	1
9396	9393	9403	1
9393	9396	9401	1
9393	9392	9399	1
9393	9403	9405	1
9392	9393	9403	1
9392	9391	9397	1
9420	9423	9424	1
9420	9423	9429	1
9420	9421	9422	1
9420	9421	9428	1
9420	9426	9427	1
9423	9424	9425	1
9423	9424	9431	1
9421	9420	9423	1
9423	9420	9426	1
9424	9423	9429	1
9422	9425	9424	1
9424	9425	9430	1
9424	9431	9433	1
9425	9424	9431	1
9421	9422	9425	1
9425	9422	9432	1
9422	9425	9430	1
9422	9421	9428	1
9422	9432	9434	1
9421	9422	9432	1
9421	9420	9426	1
2222	2223	2224	1
2222	2223	2230	1
2222	2225	2226	1
2222	2225	2231	1
2222	2228	2229	1
2223	2224	2227	1
2223	2224	2234	1
2223	2222	2225	1
2223	2222	2228	1
2224	2223	2230	1
2224	2227	2226	1
2224	2227	2232	1
2224	2234	2236	1
2224	2234	2237	1
2227	2224	2234	1
2225	2226	2227	1
2227	2226	2233	1
2226	2227	2232	1
2226	2225	2231	1
2226	2233	2235	1
2225	2226	2233	1
2225	2222	2228	1
2234	2237	2238	1
2236	2234	2237	1
9435	9438	9439	1
9435	9438	9444	1
9435	9436	9437	1
9435	9436	9443	1
9435	9441	9442	1
9438	9439	9440	1
9438	9439	9446	1
9436	9435	9438	1
9438	9435	9441	1
9439	9438	9444	1
9437	9440	9439	1
9439	9440	9445	1
9439	9446	9448	1
9440	9439	9446	1
9436	9437	9440	1
9440	9437	9447	1
9437	9440	9445	1
9437	9436	9443	1
9437	9447	9449	1
9436	9437	9447	1
9436	9435	9441	1
9464	9467	9468	1
9464	9467	9473	1
9464	9465	9466	1
9464	9465	9472	1
9464	9470	9471	1
9467	9468	9469	1
9467	9468	9475	1
9465	9464	9467	1
9467	9464	9470	1
9468	9467	9473	1
9466	9469	9468	1
9468	9469	9474	1
9468	9475	9477	1
9469	9468	9475	1
9465	9466	9469	1
9469	9466	9476	1
9466	9469	9474	1
9466	9465	9472	1
9466	9476	9478	1
9465	9466	9476	1
9465	9464	9470	1
9493	9494	9495	1
9493	9494	9501	1
9493	9496	9497	1
9493	9496	9502	1
9493	9499	9500	1
9494	9495	9498	1
9494	9495	9505	1
9496	9493	9494	1
9494	9493	9499	1
9495	9494	9501	1
9497	9498	9495	1
9495	9498	9503	1
9495	9505	9507	1
9498	9495	9505	1
9496	9497	9498	1
9498	9497	9504	1
9497	9498	9503	1
9497	9496	9502	1
9497	9504	9506	1
9496	9497	9504	1
9496	9493	9499	1
9522	9525	9526	1
9522	9525	9531	1
9522	9523	9524	1
9522	9523	9530	1
9522	9528	9529	1
9525	9526	9527	1
9525	9526	9533	1
9525	9522	9523	1
9525	9522	9528	1
9526	9525	9531	1
9526	9527	9524	1
9526	9527	9532	1
9526	9533	9535	1
9527	9526	9533	1
9523	9524	9527	1
9527	9524	9534	1
9524	9527	9532	1
9524	9523	9530	1
9524	9534	9536	1
9523	9524	9534	1
9523	9522	9528	1
9537	9538	9539	1
9537	9538	9545	1
9537	9540	9541	1
9537	9540	9546	1
9537	9543	9544	1
9538	9539	9542	1
9538	9539	9549	1
9538	9537	9540	1
9538	9537	9543	1
9539	9538	9545	1
9539	9542	9541	1
9539	9542	9547	1
9539	9549	9551	1
9542	9539	9549	1
9540	9541	9542	1
9542	9541	9548	1
9541	9542	9547	1
9541	9540	9546	1
9541	9548	9550	1
9540	9541	9548	1
9540	9537	9543	1
2257	2258	2255	1
2257	2258	2263	1
2257	2256	2253	1
2257	2256	2262	1
2257	2264	2266	1
2258	2255	2254	1
2258	2255	2265	1
2258	2257	2256	1
2258	2257	2264	1
2255	2258	2263	1
2255	2254	2253	1
2255	2254	2261	1
2255	2265	2267	1
2255	2265	2268	1
2254	2255	2265	1
2256	2253	2254	1
2254	2253	2259	1
2253	2254	2261	1
2253	2256	2262	1
2253	2259	2260	1
2256	2253	2259	1
2256	2257	2264	1
2265	2268	2269	1
2267	2265	2268	1
9552	9553	9554	1
9552	9553	9560	1
9552	9555	9556	1
9552	9555	9561	1
9552	9558	9559	1
9553	9554	9557	1
9553	9554	9564	1
9553	9552	9555	1
9553	9552	9558	1
9554	9553	9560	1
9554	9557	9556	1
9554	9557	9562	1
9554	9564	9566	1
9557	9554	9564	1
9555	9556	9557	1
9557	9556	9563	1
9556	9557	9562	1
9556	9555	9561	1
9556	9563	9565	1
9555	9556	9563	1
9555	9552	9558	1
9581	9582	9583	1
9581	9582	9589	1
9581	9584	9585	1
9581	9584	9590	1
9581	9587	9588	1
9582	9583	9586	1
9582	9583	9593	1
9582	9581	9584	1
9582	9581	9587	1
9583	9582	9589	1
9583	9586	9585	1
9583	9586	9591	1
9583	9593	9595	1
9586	9583	9593	1
9584	9585	9586	1
9586	9585	9592	1
9585	9586	9591	1
9585	9584	9590	1
9585	9592	9594	1
9584	9585	9592	1
9584	9581	9587	1
9610	9611	9612	1
9610	9611	9618	1
9610	9613	9614	1
9610	9613	9619	1
9610	9616	9617	1
9611	9612	9615	1
9611	9612	9622	1
9611	9610	9613	1
9611	9610	9616	1
9612	9611	9618	1
9612	9615	9614	1
9612	9615	9620	1
9612	9622	9624	1
9615	9612	9622	1
9613	9614	9615	1
9615	9614	9621	1
9614	9615	9620	1
9614	9613	9619	1
9614	9621	9623	1
9613	9614	9621	1
9613	9610	9616	1
9625	9628	9629	1
9625	9628	9634	1
9625	9626	9627	1
9625	9626	9633	1
9625	9631	9632	1
9628	9629	9630	1
9628	9629	9636	1
9626	9625	9628	1
9628	9625	9631	1
9629	9628	9634	1
9627	9630	9629	1
9629	9630	9635	1
9629	9636	9638	1
9630	9629	9636	1
9626	9627	9630	1
9630	9627	9637	1
9627	9630	9635	1
9627	9626	9633	1
9627	9637	9639	1
9626	9627	9637	1
9626	9625	9631	1
9640	9643	9644	1
9640	9643	9649	1
9640	9641	9642	1
9640	9641	9648	1
9640	9646	9647	1
9643	9644	9645	1
9643	9644	9651	1
9641	9640	9643	1
9643	9640	9646	1
9644	9643	9649	1
9642	9645	9644	1
9644	9645	9650	1
9644	9651	9653	1
9645	9644	9651	1
9641	9642	9645	1
9645	9642	9652	1
9642	9645	9650	1
9642	9641	9648	1
9642	9652	9654	1
9641	9642	9652	1
9641	9640	9646	1
9655	9656	9657	1
9655	9656	9663	1
9655	9658	9659	1
9655	9658	9664	1
9655	9661	9662	1
9656	9657	9660	1
9656	9657	9667	1
9658	9655	9656	1
9656	9655	9661	1
9657	9656	9663	1
9659	9660	9657	1
9657	9660	9665	1
9657	9667	9669	1
9660	9657	9667	1
9658	9659	9660	1
9660	9659	9666	1
9659	9660	9665	1
9659	9658	9664	1
9659	9666	9668	1
9658	9659	9666	1
9658	9655	9661	1
9686	9685	9684	1
9686	9685	9692	1
9686	9689	9688	1
9686	9689	9694	1
9686	9696	9698	1
9685	9684	9687	1
9685	9684	9690	1
9689	9686	9685	1
9685	9686	9696	1
9684	9685	9692	1
9688	9687	9684	1
9684	9687	9693	1
9684	9690	9691	1
9687	9684	9690	1
9689	9688	9687	1
9687	9688	9695	1
9688	9687	9693	1
9688	9689	9694	1
9688	9695	9697	1
9689	9688	9695	1
9689	9686	9696	1
9713	9714	9715	1
9713	9714	9721	1
9713	9716	9717	1
9713	9716	9722	1
9713	9719	9720	1
9714	9715	9718	1
9714	9715	9725	1
9714	9713	9716	1
9714	9713	9719	1
9715	9714	9721	1
9715	9718	9717	1
9715	9718	9723	1
9715	9725	9727	1
9718	9715	9725	1
9716	9717	9718	1
9718	9717	9724	1
9717	9718	9723	1
9717	9716	9722	1
9717	9724	9726	1
9716	9717	9724	1
9716	9713	9719	1
9742	9743	9744	1
9742	9743	9750	1
9742	9745	9746	1
9742	9745	9751	1
9742	9748	9749	1
9743	9744	9747	1
9743	9744	9754	1
9743	9742	9745	1
9743	9742	9748	1
9744	9743	9750	1
9744	9747	9746	1
9744	9747	9752	1
9744	9754	9756	1
9747	9744	9754	1
9745	9746	9747	1
9747	9746	9753	1
9746	9747	9752	1
9746	9745	9751	1
9746	9753	9755	1
9745	9746	9753	1
9745	9742	9748	1
9757	9758	9759	1
9757	9758	9765	1
9757	9760	9761	1
9757	9760	9766	1
9757	9763	9764	1
9758	9759	9762	1
9758	9759	9769	1
9758	9757	9760	1
9758	9757	9763	1
9759	9758	9765	1
9759	9762	9761	1
9759	9762	9767	1
9759	9769	9771	1
9762	9759	9769	1
9760	9761	9762	1
9762	9761	9768	1
9761	9762	9767	1
9761	9760	9766	1
9761	9768	9770	1
9760	9761	9768	1
9760	9757	9763	1
2300	2301	2302	1
2300	2301	2311	1
2300	2305	2304	1
2300	2305	2313	1
2300	2298	2299	1
2301	2302	2303	1
2301	2302	2308	1
2301	2300	2305	1
2301	2300	2298	1
2302	2301	2311	1
2302	2303	2304	1
2302	2303	2312	1
2302	2308	2309	1
2302	2308	2310	1
2303	2302	2308	1
2305	2304	2303	1
2303	2304	2306	1
2304	2303	2312	1
2304	2305	2313	1
2304	2306	2307	1
2305	2304	2306	1
2305	2300	2298	1
2309	2308	2310	1
2314	2315	2316	1
2316	2315	2322	1
2316	2319	2318	1
2316	2319	2324	1
2316	2326	2328	1
2316	2326	2329	1
2315	2314	2317	1
2315	2314	2320	1
2315	2316	2319	1
2315	2316	2326	1
2314	2315	2322	1
2314	2317	2318	1
2314	2317	2323	1
2314	2320	2321	1
2317	2314	2320	1
2317	2318	2319	1
2317	2318	2325	1
2318	2317	2323	1
2318	2319	2324	1
2318	2325	2327	1
2319	2318	2325	1
2319	2316	2326	1
2326	2329	2330	1
2328	2326	2329	1
230	229	228	1
228	229	240	1
232	233	228	1
228	233	242	1
228	226	227	1
228	226	225	1
231	230	229	1
229	230	236	1
233	228	229	1
229	228	226	1
230	229	240	1
232	231	230	1
230	231	241	1
230	236	237	1
230	236	238	1
231	230	236	1
231	232	233	1
231	232	234	1
232	231	241	1
232	233	242	1
232	234	235	1
233	232	234	1
233	228	226	1
226	225	239	1
227	226	225	1
237	236	238	1
9786	9789	9790	1
9786	9789	9795	1
9786	9787	9788	1
9786	9787	9794	1
9786	9792	9793	1
9789	9790	9791	1
9789	9790	9797	1
9787	9786	9789	1
9789	9786	9792	1
9790	9789	9795	1
9788	9791	9790	1
9790	9791	9796	1
9790	9797	9799	1
9791	9790	9797	1
9787	9788	9791	1
9791	9788	9798	1
9788	9791	9796	1
9788	9787	9794	1
9788	9798	9800	1
9787	9788	9798	1
9787	9786	9792	1
9815	9816	9817	1
9815	9816	9823	1
9815	9818	9819	1
9815	9818	9824	1
9815	9821	9822	1
9816	9817	9820	1
9816	9817	9827	1
9816	9815	9818	1
9816	9815	9821	1
9817	9816	9823	1
9817	9820	9819	1
9817	9820	9825	1
9817	9827	9829	1
9820	9817	9827	1
9818	9819	9820	1
9820	9819	9826	1
9819	9820	9825	1
9819	9818	9824	1
9819	9826	9828	1
9818	9819	9826	1
9818	9815	9821	1
9844	9845	9846	1
9844	9845	9852	1
9844	9847	9848	1
9844	9847	9853	1
9844	9850	9851	1
9845	9846	9849	1
9845	9846	9856	1
9845	9844	9847	1
9845	9844	9850	1
9846	9845	9852	1
9846	9849	9848	1
9846	9849	9854	1
9846	9856	9858	1
9849	9846	9856	1
9847	9848	9849	1
9849	9848	9855	1
9848	9849	9854	1
9848	9847	9853	1
9848	9855	9857	1
9847	9848	9855	1
9847	9844	9850	1
9873	9876	9877	1
9873	9876	9882	1
9873	9874	9875	1
9873	9874	9881	1
9873	9879	9880	1
9876	9877	9878	1
9876	9877	9884	1
9876	9873	9874	1
9876	9873	9879	1
9877	9876	9882	1
9877	9878	9875	1
9877	9878	9883	1
9877	9884	9886	1
9878	9877	9884	1
9874	9875	9878	1
9878	9875	9885	1
9875	9878	9883	1
9875	9874	9881	1
9875	9885	9887	1
9874	9875	9885	1
9874	9873	9879	1
9888	9891	9892	1
9888	9891	9897	1
9888	9889	9890	1
9888	9889	9896	1
9888	9894	9895	1
9891	9892	9893	1
9891	9892	9899	1
9891	9888	9889	1
9891	9888	9894	1
9892	9891	9897	1
9892	9893	9890	1
9892	9893	9898	1
9892	9899	9901	1
9893	9892	9899	1
9889	9890	9893	1
9893	9890	9900	1
9890	9893	9898	1
9890	9889	9896	1
9890	9900	9902	1
9889	9890	9900	1
9889	9888	9894	1
2345	2346	2347	1
2345	2346	2353	1
2345	2348	2349	1
2345	2348	2354	1
2345	2351	2352	1
2346	2347	2350	1
2346	2347	2357	1
2346	2345	2348	1
2346	2345	2351	1
2347	2346	2353	1
2347	2350	2349	1
2347	2350	2355	1
2347	2357	2359	1
2347	2357	2360	1
2350	2347	2357	1
2348	2349	2350	1
2350	2349	2356	1
2349	2350	2355	1
2349	2348	2354	1
2349	2356	2358	1
2348	2349	2356	1
2348	2345	2351	1
2357	2360	2361	1
2359	2357	2360	1
9917	9918	9919	1
9917	9918	9925	1
9917	9920	9921	1
9917	9920	9926	1
9917	9923	9924	1
9918	9919	9922	1
9918	9919	9929	1
9918	9917	9920	1
9918	9917	9923	1
9919	9918	9925	1
9919	9922	9921	1
9919	9922	9927	1
9919	9929	9931	1
9922	9919	9929	1
9920	9921	9922	1
9922	9921	9928	1
9921	9922	9927	1
9921	9920	9926	1
9921	9928	9930	1
9920	9921	9928	1
9920	9917	9923	1
9932	9935	9936	1
9932	9935	9941	1
9932	9933	9934	1
9932	9933	9940	1
9932	9938	9939	1
9935	9936	9937	1
9935	9936	9943	1
9933	9932	9935	1
9935	9932	9938	1
9936	9935	9941	1
9934	9937	9936	1
9936	9937	9942	1
9936	9943	9945	1
9937	9936	9943	1
9933	9934	9937	1
9937	9934	9944	1
9934	9937	9942	1
9934	9933	9940	1
9934	9944	9946	1
9933	9934	9944	1
9933	9932	9938	1
264	265	260	1
264	265	274	1
264	263	262	1
264	263	273	1
264	266	267	1
265	260	261	1
265	260	258	1
263	264	265	1
265	264	266	1
260	265	274	1
262	261	260	1
260	261	272	1
260	258	259	1
260	258	257	1
261	260	258	1
263	262	261	1
261	262	268	1
262	261	272	1
262	263	273	1
262	268	269	1
262	268	270	1
263	262	268	1
263	264	266	1
258	257	271	1
269	268	270	1
259	258	257	1
9961	9962	9963	1
9961	9962	9969	1
9961	9964	9965	1
9961	9964	9970	1
9961	9967	9968	1
9962	9963	9966	1
9962	9963	9973	1
9962	9961	9964	1
9962	9961	9967	1
9963	9962	9969	1
9963	9966	9965	1
9963	9966	9971	1
9963	9973	9975	1
9966	9963	9973	1
9964	9965	9966	1
9966	9965	9972	1
9965	9966	9971	1
9965	9964	9970	1
9965	9972	9974	1
9964	9965	9972	1
9964	9961	9967	1
9990	9991	9992	1
9990	9991	9998	1
9990	9993	9994	1
9990	9993	9999	1
9990	9996	9997	1
9991	9992	9995	1
9991	9992	10002	1
9991	9990	9993	1
9991	9990	9996	1
9992	9991	9998	1
9992	9995	9994	1
9992	9995	10000	1
9992	10002	10004	1
9995	9992	10002	1
9993	9994	9995	1
9995	9994	10001	1
9994	9995	10000	1
9994	9993	9999	1
9994	10001	10003	1
9993	9994	10001	1
9993	9990	9996	1
10019	10022	10023	1
10019	10022	10028	1
10019	10020	10021	1
10019	10020	10027	1
10019	10025	10026	1
10022	10023	10024	1
10022	10023	10030	1
10020	10019	10022	1
10022	10019	10025	1
10023	10022	10028	1
10021	10024	10023	1
10023	10024	10029	1
10023	10030	10032	1
10024	10023	10030	1
10020	10021	10024	1
10024	10021	10031	1
10021	10024	10029	1
10021	10020	10027	1
10021	10031	10033	1
10020	10021	10031	1
10020	10019	10025	1
10048	10051	10052	1
10048	10051	10057	1
10048	10049	10050	1
10048	10049	10056	1
10048	10054	10055	1
10051	10052	10053	1
10051	10052	10059	1
10049	10048	10051	1
10051	10048	10054	1
10052	10051	10057	1
10050	10053	10052	1
10052	10053	10058	1
10052	10059	10061	1
10053	10052	10059	1
10049	10050	10053	1
10053	10050	10060	1
10050	10053	10058	1
10050	10049	10056	1
10050	10060	10062	1
10049	10050	10060	1
10049	10048	10054	1
10079	10078	10077	1
10079	10078	10085	1
10079	10082	10081	1
10079	10082	10087	1
10079	10089	10091	1
10078	10077	10080	1
10078	10077	10083	1
10082	10079	10078	1
10078	10079	10089	1
10077	10078	10085	1
10081	10080	10077	1
10077	10080	10086	1
10077	10083	10084	1
10080	10077	10083	1
10082	10081	10080	1
10080	10081	10088	1
10081	10080	10086	1
10081	10082	10087	1
10081	10088	10090	1
10082	10081	10088	1
10082	10079	10089	1
10106	10107	10108	1
10106	10107	10114	1
10106	10109	10110	1
10106	10109	10115	1
10106	10112	10113	1
10107	10108	10111	1
10107	10108	10118	1
10109	10106	10107	1
10107	10106	10112	1
10108	10107	10114	1
10110	10111	10108	1
10108	10111	10116	1
10108	10118	10120	1
10111	10108	10118	1
10109	10110	10111	1
10111	10110	10117	1
10110	10111	10116	1
10110	10109	10115	1
10110	10117	10119	1
10109	10110	10117	1
10109	10106	10112	1
10139	10140	10137	1
10139	10140	10145	1
10139	10138	10135	1
10139	10138	10144	1
10139	10146	10148	1
10140	10137	10136	1
10140	10137	10147	1
10140	10139	10138	1
10140	10139	10146	1
10137	10140	10145	1
10137	10136	10135	1
10137	10136	10143	1
10137	10147	10149	1
10136	10137	10147	1
10138	10135	10136	1
10136	10135	10141	1
10135	10136	10143	1
10135	10138	10144	1
10135	10141	10142	1
10138	10135	10141	1
10138	10139	10146	1
10164	10165	10166	1
10164	10165	10172	1
10164	10167	10168	1
10164	10167	10173	1
10164	10170	10171	1
10165	10166	10169	1
10165	10166	10176	1
10165	10164	10167	1
10165	10164	10170	1
10166	10165	10172	1
10166	10169	10168	1
10166	10169	10174	1
10166	10176	10178	1
10169	10166	10176	1
10167	10168	10169	1
10169	10168	10175	1
10168	10169	10174	1
10168	10167	10173	1
10168	10175	10177	1
10167	10168	10175	1
10167	10164	10170	1
10193	10194	10195	1
10193	10194	10201	1
10193	10196	10197	1
10193	10196	10202	1
10193	10199	10200	1
10194	10195	10198	1
10194	10195	10205	1
10194	10193	10196	1
10194	10193	10199	1
10195	10194	10201	1
10195	10198	10197	1
10195	10198	10203	1
10195	10205	10207	1
10198	10195	10205	1
10196	10197	10198	1
10198	10197	10204	1
10197	10198	10203	1
10197	10196	10202	1
10197	10204	10206	1
10196	10197	10204	1
10196	10193	10199	1
10222	10223	10224	1
10222	10223	10230	1
10222	10225	10226	1
10222	10225	10231	1
10222	10228	10229	1
10223	10224	10227	1
10223	10224	10234	1
10223	10222	10225	1
10223	10222	10228	1
10224	10223	10230	1
10224	10227	10226	1
10224	10227	10232	1
10224	10234	10236	1
10227	10224	10234	1
10225	10226	10227	1
10227	10226	10233	1
10226	10227	10232	1
10226	10225	10231	1
10226	10233	10235	1
10225	10226	10233	1
10225	10222	10228	1
10251	10254	10255	1
10251	10254	10260	1
10251	10252	10253	1
10251	10252	10259	1
10251	10257	10258	1
10254	10255	10256	1
10254	10255	10262	1
10252	10251	10254	1
10254	10251	10257	1
10255	10254	10260	1
10253	10256	10255	1
10255	10256	10261	1
10255	10262	10264	1
10256	10255	10262	1
10252	10253	10256	1
10256	10253	10263	1
10253	10256	10261	1
10253	10252	10259	1
10253	10263	10265	1
10252	10253	10263	1
10252	10251	10257	1
10266	10269	10270	1
10266	10269	10275	1
10266	10267	10268	1
10266	10267	10274	1
10266	10272	10273	1
10269	10270	10271	1
10269	10270	10277	1
10267	10266	10269	1
10269	10266	10272	1
10270	10269	10275	1
10268	10271	10270	1
10270	10271	10276	1
10270	10277	10279	1
10271	10270	10277	1
10267	10268	10271	1
10271	10268	10278	1
10268	10271	10276	1
10268	10267	10274	1
10268	10278	10280	1
10267	10268	10278	1
10267	10266	10272	1
10295	10296	10297	1
10295	10296	10303	1
10295	10298	10299	1
10295	10298	10304	1
10295	10301	10302	1
10296	10297	10300	1
10296	10297	10307	1
10298	10295	10296	1
10296	10295	10301	1
10297	10296	10303	1
10299	10300	10297	1
10297	10300	10305	1
10297	10307	10309	1
10300	10297	10307	1
10298	10299	10300	1
10300	10299	10306	1
10299	10300	10305	1
10299	10298	10304	1
10299	10306	10308	1
10298	10299	10306	1
10298	10295	10301	1
10324	10325	10326	1
10324	10325	10332	1
10324	10327	10328	1
10324	10327	10333	1
10324	10330	10331	1
10325	10326	10329	1
10325	10326	10336	1
10327	10324	10325	1
10325	10324	10330	1
10326	10325	10332	1
10328	10329	10326	1
10326	10329	10334	1
10326	10336	10338	1
10329	10326	10336	1
10327	10328	10329	1
10329	10328	10335	1
10328	10329	10334	1
10328	10327	10333	1
10328	10335	10337	1
10327	10328	10335	1
10327	10324	10330	1
10353	10354	10355	1
10353	10354	10361	1
10353	10356	10357	1
10353	10356	10362	1
10353	10359	10360	1
10354	10355	10358	1
10354	10355	10365	1
10354	10353	10356	1
10354	10353	10359	1
10355	10354	10361	1
10355	10358	10357	1
10355	10358	10363	1
10355	10365	10367	1
10358	10355	10365	1
10356	10357	10358	1
10358	10357	10364	1
10357	10358	10363	1
10357	10356	10362	1
10357	10364	10366	1
10356	10357	10364	1
10356	10353	10359	1
2376	2377	2378	1
2376	2377	2384	1
2376	2379	2380	1
2376	2379	2385	1
2376	2382	2383	1
2377	2378	2381	1
2377	2378	2388	1
2377	2376	2379	1
2377	2376	2382	1
2378	2377	2384	1
2378	2381	2380	1
2378	2381	2386	1
2378	2388	2390	1
2378	2388	2391	1
2381	2378	2388	1
2379	2380	2381	1
2381	2380	2387	1
2380	2381	2386	1
2380	2379	2385	1
2380	2387	2389	1
2379	2380	2387	1
2379	2376	2382	1
2388	2391	2392	1
2390	2388	2391	1
10368	10369	10370	1
10368	10369	10376	1
10368	10371	10372	1
10368	10371	10377	1
10368	10374	10375	1
10369	10370	10373	1
10369	10370	10380	1
10369	10368	10371	1
10369	10368	10374	1
10370	10369	10376	1
10370	10373	10372	1
10370	10373	10378	1
10370	10380	10382	1
10373	10370	10380	1
10371	10372	10373	1
10373	10372	10379	1
10372	10373	10378	1
10372	10371	10377	1
10372	10379	10381	1
10371	10372	10379	1
10371	10368	10374	1
10383	10384	10385	1
10383	10384	10391	1
10383	10386	10387	1
10383	10386	10392	1
10383	10389	10390	1
10384	10385	10388	1
10384	10385	10395	1
10384	10383	10386	1
10384	10383	10389	1
10385	10384	10391	1
10385	10388	10387	1
10385	10388	10393	1
10385	10395	10397	1
10388	10385	10395	1
10386	10387	10388	1
10388	10387	10394	1
10387	10388	10393	1
10387	10386	10392	1
10387	10394	10396	1
10386	10387	10394	1
10386	10383	10389	1
10398	10401	10402	1
10398	10401	10407	1
10398	10399	10400	1
10398	10399	10406	1
10398	10404	10405	1
10401	10402	10403	1
10401	10402	10409	1
10399	10398	10401	1
10401	10398	10404	1
10402	10401	10407	1
10400	10403	10402	1
10402	10403	10408	1
10402	10409	10411	1
10403	10402	10409	1
10399	10400	10403	1
10403	10400	10410	1
10400	10403	10408	1
10400	10399	10406	1
10400	10410	10412	1
10399	10400	10410	1
10399	10398	10404	1
10427	10430	10431	1
10427	10430	10436	1
10427	10428	10429	1
10427	10428	10435	1
10427	10433	10434	1
10430	10431	10432	1
10430	10431	10438	1
10428	10427	10430	1
10430	10427	10433	1
10431	10430	10436	1
10429	10432	10431	1
10431	10432	10437	1
10431	10438	10440	1
10432	10431	10438	1
10428	10429	10432	1
10432	10429	10439	1
10429	10432	10437	1
10429	10428	10435	1
10429	10439	10441	1
10428	10429	10439	1
10428	10427	10433	1
10442	10445	10446	1
10442	10445	10451	1
10442	10443	10444	1
10442	10443	10450	1
10442	10448	10449	1
10445	10446	10447	1
10445	10446	10453	1
10443	10442	10445	1
10445	10442	10448	1
10446	10445	10451	1
10444	10447	10446	1
10446	10447	10452	1
10446	10453	10455	1
10447	10446	10453	1
10443	10444	10447	1
10447	10444	10454	1
10444	10447	10452	1
10444	10443	10450	1
10444	10454	10456	1
10443	10444	10454	1
10443	10442	10448	1
10475	10476	10473	1
10475	10476	10481	1
10475	10474	10471	1
10475	10474	10480	1
10475	10482	10484	1
10476	10473	10472	1
10476	10473	10483	1
10474	10475	10476	1
10476	10475	10482	1
10473	10476	10481	1
10471	10472	10473	1
10473	10472	10479	1
10473	10483	10485	1
10472	10473	10483	1
10474	10471	10472	1
10472	10471	10477	1
10471	10472	10479	1
10471	10474	10480	1
10471	10477	10478	1
10474	10471	10477	1
10474	10475	10482	1
10486	10489	10490	1
10486	10489	10495	1
10486	10487	10488	1
10486	10487	10494	1
10486	10492	10493	1
10489	10490	10491	1
10489	10490	10497	1
10489	10486	10487	1
10489	10486	10492	1
10490	10489	10495	1
10490	10491	10488	1
10490	10491	10496	1
10490	10497	10499	1
10491	10490	10497	1
10487	10488	10491	1
10491	10488	10498	1
10488	10491	10496	1
10488	10487	10494	1
10488	10498	10500	1
10487	10488	10498	1
10487	10486	10492	1
10515	10516	10517	1
10515	10516	10523	1
10515	10518	10519	1
10515	10518	10524	1
10515	10521	10522	1
10516	10517	10520	1
10516	10517	10527	1
10516	10515	10518	1
10516	10515	10521	1
10517	10516	10523	1
10517	10520	10519	1
10517	10520	10525	1
10517	10527	10529	1
10520	10517	10527	1
10518	10519	10520	1
10520	10519	10526	1
10519	10520	10525	1
10519	10518	10524	1
10519	10526	10528	1
10518	10519	10526	1
10518	10515	10521	1
10530	10531	10532	1
10530	10531	10538	1
10530	10533	10534	1
10530	10533	10539	1
10530	10536	10537	1
10531	10532	10535	1
10531	10532	10542	1
10531	10530	10533	1
10531	10530	10536	1
10532	10531	10538	1
10532	10535	10534	1
10532	10535	10540	1
10532	10542	10544	1
10535	10532	10542	1
10533	10534	10535	1
10535	10534	10541	1
10534	10535	10540	1
10534	10533	10539	1
10534	10541	10543	1
10533	10534	10541	1
10533	10530	10536	1
2407	2408	2409	1
2407	2408	2415	1
2407	2410	2411	1
2407	2410	2416	1
2407	2413	2414	1
2408	2409	2412	1
2408	2409	2419	1
2408	2407	2410	1
2408	2407	2413	1
2409	2408	2415	1
2409	2412	2411	1
2409	2412	2417	1
2409	2419	2421	1
2409	2419	2422	1
2412	2409	2419	1
2410	2411	2412	1
2412	2411	2418	1
2411	2412	2417	1
2411	2410	2416	1
2411	2418	2420	1
2410	2411	2418	1
2410	2407	2413	1
2419	2422	2423	1
2421	2419	2422	1
10545	10546	10547	1
10545	10546	10553	1
10545	10548	10549	1
10545	10548	10554	1
10545	10551	10552	1
10546	10547	10550	1
10546	10547	10557	1
10546	10545	10548	1
10546	10545	10551	1
10547	10546	10553	1
10547	10550	10549	1
10547	10550	10555	1
10547	10557	10559	1
10550	10547	10557	1
10548	10549	10550	1
10550	10549	10556	1
10549	10550	10555	1
10549	10548	10554	1
10549	10556	10558	1
10548	10549	10556	1
10548	10545	10551	1
2438	2439	2440	1
2438	2439	2446	1
2438	2441	2442	1
2438	2441	2447	1
2438	2444	2445	1
2439	2440	2443	1
2439	2440	2450	1
2439	2438	2441	1
2439	2438	2444	1
2440	2439	2446	1
2440	2443	2442	1
2440	2443	2448	1
2440	2450	2452	1
2440	2450	2453	1
2443	2440	2450	1
2441	2442	2443	1
2443	2442	2449	1
2442	2443	2448	1
2442	2441	2447	1
2442	2449	2451	1
2441	2442	2449	1
2441	2438	2444	1
2450	2453	2454	1
2452	2450	2453	1
10574	10575	10576	1
10574	10575	10582	1
10574	10577	10578	1
10574	10577	10583	1
10574	10580	10581	1
10575	10576	10579	1
10575	10576	10586	1
10575	10574	10577	1
10575	10574	10580	1
10576	10575	10582	1
10576	10579	10578	1
10576	10579	10584	1
10576	10586	10588	1
10579	10576	10586	1
10577	10578	10579	1
10579	10578	10585	1
10578	10579	10584	1
10578	10577	10583	1
10578	10585	10587	1
10577	10578	10585	1
10577	10574	10580	1
2469	2470	2471	1
2469	2470	2477	1
2469	2472	2473	1
2469	2472	2478	1
2469	2475	2476	1
2470	2471	2474	1
2470	2471	2481	1
2470	2469	2472	1
2470	2469	2475	1
2471	2470	2477	1
2471	2474	2473	1
2471	2474	2479	1
2471	2481	2483	1
2471	2481	2484	1
2474	2471	2481	1
2472	2473	2474	1
2474	2473	2480	1
2473	2474	2479	1
2473	2472	2478	1
2473	2480	2482	1
2472	2473	2480	1
2472	2469	2475	1
2481	2484	2485	1
2483	2481	2484	1
10603	10604	10605	1
10605	10604	10611	1
10605	10608	10607	1
10605	10608	10613	1
10605	10615	10617	1
10604	10603	10606	1
10604	10603	10609	1
10604	10605	10608	1
10604	10605	10615	1
10603	10604	10611	1
10603	10606	10607	1
10603	10606	10612	1
10603	10609	10610	1
10606	10603	10609	1
10606	10607	10608	1
10606	10607	10614	1
10607	10606	10612	1
10607	10608	10613	1
10607	10614	10616	1
10608	10607	10614	1
10608	10605	10615	1
10632	10635	10636	1
10632	10635	10641	1
10632	10633	10634	1
10632	10633	10640	1
10632	10638	10639	1
10635	10636	10637	1
10635	10636	10643	1
10633	10632	10635	1
10635	10632	10638	1
10636	10635	10641	1
10634	10637	10636	1
10636	10637	10642	1
10636	10643	10645	1
10637	10636	10643	1
10633	10634	10637	1
10637	10634	10644	1
10634	10637	10642	1
10634	10633	10640	1
10634	10644	10646	1
10633	10634	10644	1
10633	10632	10638	1
10661	10662	10663	1
10661	10662	10669	1
10661	10664	10665	1
10661	10664	10670	1
10661	10667	10668	1
10662	10663	10666	1
10662	10663	10673	1
10664	10661	10662	1
10662	10661	10667	1
10663	10662	10669	1
10665	10666	10663	1
10663	10666	10671	1
10663	10673	10675	1
10666	10663	10673	1
10664	10665	10666	1
10666	10665	10672	1
10665	10666	10671	1
10665	10664	10670	1
10665	10672	10674	1
10664	10665	10672	1
10664	10661	10667	1
2500	2501	2502	1
2502	2501	2508	1
2502	2505	2504	1
2502	2505	2510	1
2502	2512	2514	1
2502	2512	2515	1
2501	2500	2503	1
2501	2500	2506	1
2501	2502	2505	1
2501	2502	2512	1
2500	2501	2508	1
2500	2503	2504	1
2500	2503	2509	1
2500	2506	2507	1
2503	2500	2506	1
2503	2504	2505	1
2503	2504	2511	1
2504	2503	2509	1
2504	2505	2510	1
2504	2511	2513	1
2505	2504	2511	1
2505	2502	2512	1
2512	2515	2516	1
2514	2512	2515	1
2531	2532	2533	1
2531	2532	2539	1
2531	2534	2535	1
2531	2534	2540	1
2531	2537	2538	1
2532	2533	2536	1
2532	2533	2543	1
2532	2531	2534	1
2532	2531	2537	1
2533	2532	2539	1
2533	2536	2535	1
2533	2536	2541	1
2533	2543	2545	1
2533	2543	2546	1
2536	2533	2543	1
2534	2535	2536	1
2536	2535	2542	1
2535	2536	2541	1
2535	2534	2540	1
2535	2542	2544	1
2534	2535	2542	1
2534	2531	2537	1
2543	2546	2547	1
2545	2543	2546	1
10690	10691	10692	1
10690	10691	10698	1
10690	10693	10694	1
10690	10693	10699	1
10690	10696	10697	1
10691	10692	10695	1
10691	10692	10702	1
10693	10690	10691	1
10691	10690	10696	1
10692	10691	10698	1
10694	10695	10692	1
10692	10695	10700	1
10692	10702	10704	1
10695	10692	10702	1
10693	10694	10695	1
10695	10694	10701	1
10694	10695	10700	1
10694	10693	10699	1
10694	10701	10703	1
10693	10694	10701	1
10693	10690	10696	1
10719	10722	10723	1
10719	10722	10728	1
10719	10720	10721	1
10719	10720	10727	1
10719	10725	10726	1
10722	10723	10724	1
10722	10723	10730	1
10720	10719	10722	1
10722	10719	10725	1
10723	10722	10728	1
10721	10724	10723	1
10723	10724	10729	1
10723	10730	10732	1
10724	10723	10730	1
10720	10721	10724	1
10724	10721	10731	1
10721	10724	10729	1
10721	10720	10727	1
10721	10731	10733	1
10720	10721	10731	1
10720	10719	10725	1
10736	10739	10738	1
10738	10739	10744	1
10734	10737	10738	1
10738	10737	10743	1
10738	10745	10747	1
10735	10736	10739	1
10739	10736	10746	1
10737	10738	10739	1
10739	10738	10745	1
10736	10739	10744	1
10734	10735	10736	1
10736	10735	10742	1
10736	10746	10748	1
10735	10736	10746	1
10735	10734	10737	1
10735	10734	10740	1
10734	10735	10742	1
10734	10737	10743	1
10734	10740	10741	1
10737	10734	10740	1
10737	10738	10745	1
10749	10752	10753	1
10749	10752	10758	1
10749	10750	10751	1
10749	10750	10757	1
10749	10755	10756	1
10752	10753	10754	1
10752	10753	10760	1
10750	10749	10752	1
10752	10749	10755	1
10753	10752	10758	1
10751	10754	10753	1
10753	10754	10759	1
10753	10760	10762	1
10754	10753	10760	1
10750	10751	10754	1
10754	10751	10761	1
10751	10754	10759	1
10751	10750	10757	1
10751	10761	10763	1
10750	10751	10761	1
10750	10749	10755	1
10778	10781	10782	1
10778	10781	10787	1
10778	10779	10780	1
10778	10779	10786	1
10778	10784	10785	1
10781	10782	10783	1
10781	10782	10789	1
10779	10778	10781	1
10781	10778	10784	1
10782	10781	10787	1
10780	10783	10782	1
10782	10783	10788	1
10782	10789	10791	1
10783	10782	10789	1
10779	10780	10783	1
10783	10780	10790	1
10780	10783	10788	1
10780	10779	10786	1
10780	10790	10792	1
10779	10780	10790	1
10779	10778	10784	1
10793	10794	10795	1
10793	10794	10801	1
10793	10796	10797	1
10793	10796	10802	1
10793	10799	10800	1
10794	10795	10798	1
10794	10795	10805	1
10794	10793	10796	1
10794	10793	10799	1
10795	10794	10801	1
10795	10798	10797	1
10795	10798	10803	1
10795	10805	10807	1
10798	10795	10805	1
10796	10797	10798	1
10798	10797	10804	1
10797	10798	10803	1
10797	10796	10802	1
10797	10804	10806	1
10796	10797	10804	1
10796	10793	10799	1
10822	10823	10824	1
10822	10823	10830	1
10822	10825	10826	1
10822	10825	10831	1
10822	10828	10829	1
10823	10824	10827	1
10823	10824	10834	1
10823	10822	10825	1
10823	10822	10828	1
10824	10823	10830	1
10824	10827	10826	1
10824	10827	10832	1
10824	10834	10836	1
10827	10824	10834	1
10825	10826	10827	1
10827	10826	10833	1
10826	10827	10832	1
10826	10825	10831	1
10826	10833	10835	1
10825	10826	10833	1
10825	10822	10828	1
10851	10854	10855	1
10851	10854	10860	1
10851	10852	10853	1
10851	10852	10859	1
10851	10857	10858	1
10854	10855	10856	1
10854	10855	10862	1
10854	10851	10852	1
10854	10851	10857	1
10855	10854	10860	1
10855	10856	10853	1
10855	10856	10861	1
10855	10862	10864	1
10856	10855	10862	1
10852	10853	10856	1
10856	10853	10863	1
10853	10856	10861	1
10853	10852	10859	1
10853	10863	10865	1
10852	10853	10863	1
10852	10851	10857	1
10866	10869	10870	1
10866	10869	10875	1
10866	10867	10868	1
10866	10867	10874	1
10866	10872	10873	1
10869	10870	10871	1
10869	10870	10877	1
10869	10866	10867	1
10869	10866	10872	1
10870	10869	10875	1
10870	10871	10868	1
10870	10871	10876	1
10870	10877	10879	1
10871	10870	10877	1
10867	10868	10871	1
10871	10868	10878	1
10868	10871	10876	1
10868	10867	10874	1
10868	10878	10880	1
10867	10868	10878	1
10867	10866	10872	1
10895	10896	10897	1
10895	10896	10903	1
10895	10898	10899	1
10895	10898	10904	1
10895	10901	10902	1
10896	10897	10900	1
10896	10897	10907	1
10896	10895	10898	1
10896	10895	10901	1
10897	10896	10903	1
10897	10900	10899	1
10897	10900	10905	1
10897	10907	10909	1
10900	10897	10907	1
10898	10899	10900	1
10900	10899	10906	1
10899	10900	10905	1
10899	10898	10904	1
10899	10906	10908	1
10898	10899	10906	1
10898	10895	10901	1
10924	10925	10926	1
10924	10925	10932	1
10924	10927	10928	1
10924	10927	10933	1
10924	10930	10931	1
10925	10926	10929	1
10925	10926	10936	1
10925	10924	10927	1
10925	10924	10930	1
10926	10925	10932	1
10926	10929	10928	1
10926	10929	10934	1
10926	10936	10938	1
10929	10926	10936	1
10927	10928	10929	1
10929	10928	10935	1
10928	10929	10934	1
10928	10927	10933	1
10928	10935	10937	1
10927	10928	10935	1
10927	10924	10930	1
10953	10954	10955	1
10953	10954	10961	1
10953	10956	10957	1
10953	10956	10962	1
10953	10959	10960	1
10954	10955	10958	1
10954	10955	10965	1
10954	10953	10956	1
10954	10953	10959	1
10955	10954	10961	1
10955	10958	10957	1
10955	10958	10963	1
10955	10965	10967	1
10958	10955	10965	1
10956	10957	10958	1
10958	10957	10964	1
10957	10958	10963	1
10957	10956	10962	1
10957	10964	10966	1
10956	10957	10964	1
10956	10953	10959	1
10968	10971	10972	1
10968	10971	10977	1
10968	10969	10970	1
10968	10969	10976	1
10968	10974	10975	1
10971	10972	10973	1
10971	10972	10979	1
10969	10968	10971	1
10971	10968	10974	1
10972	10971	10977	1
10970	10973	10972	1
10972	10973	10978	1
10972	10979	10981	1
10973	10972	10979	1
10969	10970	10973	1
10973	10970	10980	1
10970	10973	10978	1
10970	10969	10976	1
10970	10980	10982	1
10969	10970	10980	1
10969	10968	10974	1
10983	10986	10987	1
10983	10986	10992	1
10983	10984	10985	1
10983	10984	10991	1
10983	10989	10990	1
10986	10987	10988	1
10986	10987	10994	1
10984	10983	10986	1
10986	10983	10989	1
10987	10986	10992	1
10985	10988	10987	1
10987	10988	10993	1
10987	10994	10996	1
10988	10987	10994	1
10984	10985	10988	1
10988	10985	10995	1
10985	10988	10993	1
10985	10984	10991	1
10985	10995	10997	1
10984	10985	10995	1
10984	10983	10989	1
10998	11001	11002	1
10998	11001	11007	1
10998	10999	11000	1
10998	10999	11006	1
10998	11004	11005	1
11001	11002	11003	1
11001	11002	11009	1
10999	10998	11001	1
11001	10998	11004	1
11002	11001	11007	1
11000	11003	11002	1
11002	11003	11008	1
11002	11009	11011	1
11003	11002	11009	1
10999	11000	11003	1
11003	11000	11010	1
11000	11003	11008	1
11000	10999	11006	1
11000	11010	11012	1
10999	11000	11010	1
10999	10998	11004	1
11027	11028	11029	1
11027	11028	11035	1
11027	11030	11031	1
11027	11030	11036	1
11027	11033	11034	1
11028	11029	11032	1
11028	11029	11039	1
11030	11027	11028	1
11028	11027	11033	1
11029	11028	11035	1
11031	11032	11029	1
11029	11032	11037	1
11029	11039	11041	1
11032	11029	11039	1
11030	11031	11032	1
11032	11031	11038	1
11031	11032	11037	1
11031	11030	11036	1
11031	11038	11040	1
11030	11031	11038	1
11030	11027	11033	1
11042	11045	11046	1
11042	11045	11051	1
11042	11043	11044	1
11042	11043	11050	1
11042	11048	11049	1
11045	11046	11047	1
11045	11046	11053	1
11045	11042	11043	1
11045	11042	11048	1
11046	11045	11051	1
11046	11047	11044	1
11046	11047	11052	1
11046	11053	11055	1
11047	11046	11053	1
11043	11044	11047	1
11047	11044	11054	1
11044	11047	11052	1
11044	11043	11050	1
11044	11054	11056	1
11043	11044	11054	1
11043	11042	11048	1
2548	2551	2552	1
2548	2551	2557	1
2548	2549	2550	1
2548	2549	2556	1
2548	2554	2555	1
2551	2552	2553	1
2551	2552	2559	1
2549	2548	2551	1
2551	2548	2554	1
2552	2551	2557	1
2550	2553	2552	1
2552	2553	2558	1
2552	2559	2561	1
2553	2552	2559	1
2549	2550	2553	1
2553	2550	2560	1
2550	2553	2558	1
2550	2549	2556	1
2550	2560	2562	1
2550	2560	2563	1
2549	2550	2560	1
2549	2548	2554	1
2560	2563	2564	1
2562	2560	2563	1
11057	11058	11059	1
11057	11058	11065	1
11057	11060	11061	1
11057	11060	11066	1
11057	11063	11064	1
11058	11059	11062	1
11058	11059	11069	1
11058	11057	11060	1
11058	11057	11063	1
11059	11058	11065	1
11059	11062	11061	1
11059	11062	11067	1
11059	11069	11071	1
11062	11059	11069	1
11060	11061	11062	1
11062	11061	11068	1
11061	11062	11067	1
11061	11060	11066	1
11061	11068	11070	1
11060	11061	11068	1
11060	11057	11063	1
11072	11073	11074	1
11072	11073	11080	1
11072	11075	11076	1
11072	11075	11081	1
11072	11078	11079	1
11073	11074	11077	1
11073	11074	11084	1
11073	11072	11075	1
11073	11072	11078	1
11074	11073	11080	1
11074	11077	11076	1
11074	11077	11082	1
11074	11084	11086	1
11077	11074	11084	1
11075	11076	11077	1
11077	11076	11083	1
11076	11077	11082	1
11076	11075	11081	1
11076	11083	11085	1
11075	11076	11083	1
11075	11072	11078	1
11101	11102	11103	1
11101	11102	11109	1
11101	11104	11105	1
11101	11104	11110	1
11101	11107	11108	1
11102	11103	11106	1
11102	11103	11113	1
11102	11101	11104	1
11102	11101	11107	1
11103	11102	11109	1
11103	11106	11105	1
11103	11106	11111	1
11103	11113	11115	1
11106	11103	11113	1
11104	11105	11106	1
11106	11105	11112	1
11105	11106	11111	1
11105	11104	11110	1
11105	11112	11114	1
11104	11105	11112	1
11104	11101	11107	1
11130	11131	11132	1
11130	11131	11138	1
11130	11133	11134	1
11130	11133	11139	1
11130	11136	11137	1
11131	11132	11135	1
11131	11132	11142	1
11131	11130	11133	1
11131	11130	11136	1
11132	11131	11138	1
11132	11135	11134	1
11132	11135	11140	1
11132	11142	11144	1
11135	11132	11142	1
11133	11134	11135	1
11135	11134	11141	1
11134	11135	11140	1
11134	11133	11139	1
11134	11141	11143	1
11133	11134	11141	1
11133	11130	11136	1
2579	2580	2581	1
2579	2580	2587	1
2579	2582	2583	1
2579	2582	2588	1
2579	2585	2586	1
2580	2581	2584	1
2580	2581	2591	1
2580	2579	2582	1
2580	2579	2585	1
2581	2580	2587	1
2581	2584	2583	1
2581	2584	2589	1
2581	2591	2593	1
2581	2591	2594	1
2584	2581	2591	1
2582	2583	2584	1
2584	2583	2590	1
2583	2584	2589	1
2583	2582	2588	1
2583	2590	2592	1
2582	2583	2590	1
2582	2579	2585	1
2591	2594	2595	1
2593	2591	2594	1
11145	11146	11147	1
11145	11146	11153	1
11145	11148	11149	1
11145	11148	11154	1
11145	11151	11152	1
11146	11147	11150	1
11146	11147	11157	1
11146	11145	11148	1
11146	11145	11151	1
11147	11146	11153	1
11147	11150	11149	1
11147	11150	11155	1
11147	11157	11159	1
11150	11147	11157	1
11148	11149	11150	1
11150	11149	11156	1
11149	11150	11155	1
11149	11148	11154	1
11149	11156	11158	1
11148	11149	11156	1
11148	11145	11151	1
11160	11163	11164	1
11160	11163	11169	1
11160	11161	11162	1
11160	11161	11168	1
11160	11166	11167	1
11163	11164	11165	1
11163	11164	11171	1
11161	11160	11163	1
11163	11160	11166	1
11164	11163	11169	1
11162	11165	11164	1
11164	11165	11170	1
11164	11171	11173	1
11165	11164	11171	1
11161	11162	11165	1
11165	11162	11172	1
11162	11165	11170	1
11162	11161	11168	1
11162	11172	11174	1
11161	11162	11172	1
11161	11160	11166	1

[ dihedrals ]
5310	5309	5308	5319	9
5313	5309	5308	5319	9
5312	5307	5308	5319	9
5315	5307	5308	5319	9
5319	6370	6360	6359	9
5319	6370	6360	6363	9
5308	5309	5310	5317	9
5313	5309	5310	5317	9
5312	5311	5310	5317	9
5314	5311	5310	5317	9
5317	5327	5321	5324	9
5317	5327	5321	5322	9
5308	5319	6370	6360	9
5308	5319	6370	6372	9
5308	5309	5310	5311	9
5308	5307	5312	5311	9
5308	5307	5312	5316	9
5310	5317	5327	5321	9
5310	5317	5327	5328	9
5307	5308	5309	5310	9
5307	5312	5311	5310	9
5310	5311	5312	5316	9
5309	5308	5319	5320	9
5309	5308	5319	6370	9
5309	5308	5307	5312	9
5309	5308	5307	5315	9
5309	5310	5317	5318	9
5309	5310	5317	5327	9
5309	5310	5311	5312	9
5309	5310	5311	5314	9
5307	5308	5319	5320	9
5307	5308	5319	6370	9
5307	5308	5309	5313	9
5307	5312	5311	5314	9
5311	5310	5317	5318	9
5311	5310	5317	5327	9
5311	5310	5309	5313	9
5311	5312	5307	5315	9
5315	5307	5312	5316	9
5314	5311	5312	5316	9
5320	5319	6370	6360	9
5320	5319	6370	6372	9
5318	5317	5327	5321	9
5318	5317	5327	5328	9
4569	4568	4567	4578	9
4572	4568	4567	4578	9
4571	4566	4567	4578	9
4574	4566	4567	4578	9
4578	5333	5323	5326	9
4578	5333	5323	5322	9
4567	4568	4569	4576	9
4572	4568	4569	4576	9
4571	4570	4569	4576	9
4573	4570	4569	4576	9
4576	4586	4580	4583	9
4576	4586	4580	4581	9
4567	4578	5333	5323	9
4567	4578	5333	5335	9
4567	4568	4569	4570	9
4567	4566	4571	4570	9
4567	4566	4571	4575	9
4569	4576	4586	4580	9
4569	4576	4586	4587	9
4566	4567	4568	4569	9
4566	4571	4570	4569	9
4569	4570	4571	4575	9
4568	4567	4578	4579	9
4568	4567	4578	5333	9
4568	4567	4566	4571	9
4568	4567	4566	4574	9
4568	4569	4576	4577	9
4568	4569	4576	4586	9
4568	4569	4570	4571	9
4568	4569	4570	4573	9
4566	4567	4578	4579	9
4566	4567	4578	5333	9
4566	4567	4568	4572	9
4566	4571	4570	4573	9
4570	4569	4576	4577	9
4570	4569	4576	4586	9
4570	4569	4568	4572	9
4570	4571	4566	4574	9
4574	4566	4571	4575	9
4573	4570	4571	4575	9
4579	4578	5333	5323	9
4579	4578	5333	5335	9
4577	4576	4586	4580	9
4577	4576	4586	4587	9
9833	9832	9831	9842	9
9836	9832	9831	9842	9
9835	9830	9831	9842	9
9838	9830	9831	9842	9
9842	9850	9844	9845	9
9842	9850	9844	9847	9
9831	9832	9833	9840	9
9836	9832	9833	9840	9
9835	9834	9833	9840	9
9837	9834	9833	9840	9
9840	8732	8722	8725	9
9840	8732	8722	8721	9
9831	9842	9850	9844	9
9831	9842	9850	9851	9
9831	9832	9833	9834	9
9831	9830	9835	9834	9
9831	9830	9835	9839	9
9833	9840	8732	8722	9
9833	9840	8732	8734	9
9830	9831	9832	9833	9
9830	9835	9834	9833	9
9833	9834	9835	9839	9
9832	9831	9842	9843	9
9832	9831	9842	9850	9
9832	9831	9830	9835	9
9832	9831	9830	9838	9
9832	9833	9840	9841	9
9832	9833	9840	8732	9
9832	9833	9834	9835	9
9832	9833	9834	9837	9
9830	9831	9842	9843	9
9830	9831	9842	9850	9
9830	9831	9832	9836	9
9830	9835	9834	9837	9
9834	9833	9840	9841	9
9834	9833	9840	8732	9
9834	9833	9832	9836	9
9834	9835	9830	9838	9
9838	9830	9835	9839	9
9837	9834	9835	9839	9
9843	9842	9850	9844	9
9843	9842	9850	9851	9
9841	9840	8732	8722	9
9841	9840	8732	8734	9
5163	5164	5165	5172	9
5168	5164	5165	5172	9
5167	5166	5165	5172	9
5169	5166	5165	5172	9
5172	7739	7729	7732	9
5172	7739	7729	7728	9
5165	5164	5163	5174	9
5168	5164	5163	5174	9
5167	5162	5163	5174	9
5170	5162	5163	5174	9
5174	5182	5176	5179	9
5174	5182	5176	5177	9
5165	5172	7739	7729	9
5165	5172	7739	7741	9
5165	5164	5163	5162	9
5165	5166	5167	5162	9
5165	5166	5167	5171	9
5163	5174	5182	5176	9
5163	5174	5182	5183	9
5166	5165	5164	5163	9
5166	5167	5162	5163	9
5163	5162	5167	5171	9
5164	5165	5172	5173	9
5164	5165	5172	7739	9
5164	5165	5166	5167	9
5164	5165	5166	5169	9
5164	5163	5174	5175	9
5164	5163	5174	5182	9
5164	5163	5162	5167	9
5164	5163	5162	5170	9
5166	5165	5172	5173	9
5166	5165	5172	7739	9
5166	5165	5164	5168	9
5166	5167	5162	5170	9
5162	5163	5174	5175	9
5162	5163	5174	5182	9
5162	5163	5164	5168	9
5162	5167	5166	5169	9
5169	5166	5167	5171	9
5170	5162	5167	5171	9
5173	5172	7739	7729	9
5173	5172	7739	7741	9
5175	5174	5182	5176	9
5175	5174	5182	5183	9
1362	1361	1360	1371	9
1365	1361	1360	1371	9
1364	1359	1360	1371	9
1367	1359	1360	1371	9
1347	1346	1353	1371	9
1345	1346	1353	1371	9
1360	1361	1362	1369	9
1365	1361	1362	1369	9
1364	1363	1362	1369	9
1366	1363	1362	1369	9
1369	7228	7221	7222	9
1369	7228	7221	7220	9
1346	1353	1371	1360	9
1355	1353	1371	1360	9
1360	1361	1362	1363	9
1360	1359	1364	1363	9
1360	1359	1364	1368	9
1362	1369	7228	7221	9
1362	1369	7228	7230	9
1359	1360	1361	1362	9
1359	1364	1363	1362	9
1362	1363	1364	1368	9
1361	1360	1371	1372	9
1353	1371	1360	1361	9
1361	1360	1359	1364	9
1361	1360	1359	1367	9
1361	1362	1369	1370	9
1361	1362	1369	7228	9
1361	1362	1363	1364	9
1361	1362	1363	1366	9
1359	1360	1371	1372	9
1353	1371	1360	1359	9
1359	1360	1361	1365	9
1359	1364	1363	1366	9
1363	1362	1369	1370	9
1363	1362	1369	7228	9
1363	1362	1361	1365	9
1363	1364	1359	1367	9
1367	1359	1364	1368	9
1366	1363	1364	1368	9
1346	1353	1371	1372	9
1355	1353	1371	1372	9
1370	1369	7228	7221	9
1370	1369	7228	7230	9
11598	11597	11596	11607	9
11601	11597	11596	11607	9
11600	11595	11596	11607	9
11603	11595	11596	11607	9
11607	4591	4584	4583	9
11607	4591	4584	4585	9
11596	11597	11598	11605	9
11601	11597	11598	11605	9
11600	11599	11598	11605	9
11602	11599	11598	11605	9
11605	10002	9992	9991	9
11605	10002	9992	9995	9
11596	11607	4591	4584	9
11596	11607	4591	4593	9
11596	11597	11598	11599	9
11596	11595	11600	11599	9
11596	11595	11600	11604	9
11598	11605	10002	9992	9
11598	11605	10002	10004	9
11595	11596	11597	11598	9
11595	11600	11599	11598	9
11598	11599	11600	11604	9
11597	11596	11607	11608	9
11597	11596	11607	4591	9
11597	11596	11595	11600	9
11597	11596	11595	11603	9
11597	11598	11605	11606	9
11597	11598	11605	10002	9
11597	11598	11599	11600	9
11597	11598	11599	11602	9
11595	11596	11607	11608	9
11595	11596	11607	4591	9
11595	11596	11597	11601	9
11595	11600	11599	11602	9
11599	11598	11605	11606	9
11599	11598	11605	10002	9
11599	11598	11597	11601	9
11599	11600	11595	11603	9
11603	11595	11600	11604	9
11602	11599	11600	11604	9
11608	11607	4591	4584	9
11608	11607	4591	4593	9
11606	11605	10002	9992	9
11606	11605	10002	10004	9
2626	2627	2628	2635	9
2631	2627	2628	2635	9
2630	2629	2628	2635	9
2632	2629	2628	2635	9
2635	3953	3943	3946	9
2635	3953	3943	3942	9
2628	2627	2626	2637	9
2631	2627	2626	2637	9
2630	2625	2626	2637	9
2633	2625	2626	2637	9
2628	2635	3953	3943	9
2628	2635	3953	3955	9
2625	2626	2627	2628	9
2625	2630	2629	2628	9
2628	2629	2630	2634	9
2626	2627	2628	2629	9
2626	2625	2630	2629	9
2626	2625	2630	2634	9
2627	2628	2635	2636	9
2627	2628	2635	3953	9
2627	2628	2629	2630	9
2627	2628	2629	2632	9
2627	2626	2637	2638	9
2627	2626	2637	2639	9
2627	2626	2625	2630	9
2627	2626	2625	2633	9
2629	2628	2635	2636	9
2629	2628	2635	3953	9
2629	2628	2627	2631	9
2629	2630	2625	2633	9
2625	2626	2637	2638	9
2625	2626	2637	2639	9
2625	2626	2627	2631	9
2625	2630	2629	2632	9
2632	2629	2630	2634	9
2633	2625	2630	2634	9
2636	2635	3953	3943	9
2636	2635	3953	3955	9
804	803	802	813	9
807	803	802	813	9
806	801	802	813	9
809	801	802	813	9
813	4505	4495	4494	9
813	4505	4495	4498	9
802	803	804	811	9
807	803	804	811	9
806	805	804	811	9
808	805	804	811	9
785	784	790	811	9
787	784	790	811	9
802	813	4505	4495	9
802	813	4505	4507	9
802	803	804	805	9
802	801	806	805	9
802	801	806	810	9
784	790	811	804	9
791	790	811	804	9
801	802	803	804	9
801	806	805	804	9
804	805	806	810	9
803	802	813	814	9
803	802	813	4505	9
803	802	801	806	9
803	802	801	809	9
803	804	811	812	9
790	811	804	803	9
803	804	805	806	9
803	804	805	808	9
801	802	813	814	9
801	802	813	4505	9
801	802	803	807	9
801	806	805	808	9
805	804	811	812	9
790	811	804	805	9
805	804	803	807	9
805	806	801	809	9
809	801	806	810	9
808	805	806	810	9
814	813	4505	4495	9
814	813	4505	4507	9
784	790	811	812	9
791	790	811	812	9
11119	11118	11117	11128	9
11122	11118	11117	11128	9
11121	11116	11117	11128	9
11124	11116	11117	11128	9
11128	4345	4335	4338	9
11128	4345	4335	4334	9
11117	11118	11119	11126	9
11122	11118	11119	11126	9
11121	11120	11119	11126	9
11123	11120	11119	11126	9
11126	11136	11130	11131	9
11126	11136	11130	11133	9
11117	11128	4345	4335	9
11117	11128	4345	4347	9
11117	11118	11119	11120	9
11117	11116	11121	11120	9
11117	11116	11121	11125	9
11119	11126	11136	11130	9
11119	11126	11136	11137	9
11116	11117	11118	11119	9
11116	11121	11120	11119	9
11119	11120	11121	11125	9
11118	11117	11128	11129	9
11118	11117	11128	4345	9
11118	11117	11116	11121	9
11118	11117	11116	11124	9
11118	11119	11126	11127	9
11118	11119	11126	11136	9
11118	11119	11120	11121	9
11118	11119	11120	11123	9
11116	11117	11128	11129	9
11116	11117	11128	4345	9
11116	11117	11118	11122	9
11116	11121	11120	11123	9
11120	11119	11126	11127	9
11120	11119	11126	11136	9
11120	11119	11118	11122	9
11120	11121	11116	11124	9
11124	11116	11121	11125	9
11123	11120	11121	11125	9
11129	11128	4345	4335	9
11129	11128	4345	4347	9
11127	11126	11136	11130	9
11127	11126	11136	11137	9
11540	11541	11542	11549	9
11545	11541	11542	11549	9
11544	11543	11542	11549	9
11546	11543	11542	11549	9
11549	4447	4437	4436	9
11549	4447	4437	4440	9
11542	11541	11540	11551	9
11545	11541	11540	11551	9
11544	11539	11540	11551	9
11547	11539	11540	11551	9
11551	7229	7219	7218	9
11551	7229	7219	7222	9
11542	11549	4447	4437	9
11542	11549	4447	4449	9
11542	11541	11540	11539	9
11542	11543	11544	11539	9
11542	11543	11544	11548	9
11540	11551	7229	7219	9
11540	11551	7229	7231	9
11543	11542	11541	11540	9
11543	11544	11539	11540	9
11540	11539	11544	11548	9
11541	11542	11549	11550	9
11541	11542	11549	4447	9
11541	11542	11543	11544	9
11541	11542	11543	11546	9
11541	11540	11551	11552	9
11541	11540	11551	7229	9
11541	11540	11539	11544	9
11541	11540	11539	11547	9
11543	11542	11549	11550	9
11543	11542	11549	4447	9
11543	11542	11541	11545	9
11543	11544	11539	11547	9
11539	11540	11551	11552	9
11539	11540	11551	7229	9
11539	11540	11541	11545	9
11539	11544	11543	11546	9
11546	11543	11544	11548	9
11547	11539	11544	11548	9
11550	11549	4447	4437	9
11550	11549	4447	4449	9
11552	11551	7229	7219	9
11552	11551	7229	7231	9
9862	9861	9860	9871	9
9865	9861	9860	9871	9
9864	9859	9860	9871	9
9867	9859	9860	9871	9
9871	5975	5968	5967	9
9871	5975	5968	5969	9
9860	9861	9862	9869	9
9865	9861	9862	9869	9
9864	9863	9862	9869	9
9866	9863	9862	9869	9
9869	9879	9873	9876	9
9869	9879	9873	9874	9
9860	9871	5975	5968	9
9860	9871	5975	5977	9
9860	9861	9862	9863	9
9860	9859	9864	9863	9
9860	9859	9864	9868	9
9862	9869	9879	9873	9
9862	9869	9879	9880	9
9859	9860	9861	9862	9
9859	9864	9863	9862	9
9862	9863	9864	9868	9
9861	9860	9871	9872	9
9861	9860	9871	5975	9
9861	9860	9859	9864	9
9861	9860	9859	9867	9
9861	9862	9869	9870	9
9861	9862	9869	9879	9
9861	9862	9863	9864	9
9861	9862	9863	9866	9
9859	9860	9871	9872	9
9859	9860	9871	5975	9
9859	9860	9861	9865	9
9859	9864	9863	9866	9
9863	9862	9869	9870	9
9863	9862	9869	9879	9
9863	9862	9861	9865	9
9863	9864	9859	9867	9
9867	9859	9864	9868	9
9866	9863	9864	9868	9
9872	9871	5975	5968	9
9872	9871	5975	5977	9
9870	9869	9879	9873	9
9870	9869	9879	9880	9
7189	7190	7191	7198	9
7194	7190	7191	7198	9
7193	7192	7191	7198	9
7195	7192	7191	7198	9
7198	10965	10955	10954	9
7198	10965	10955	10958	9
7191	7190	7189	7200	9
7194	7190	7189	7200	9
7193	7188	7189	7200	9
7196	7188	7189	7200	9
7200	7208	7202	7205	9
7200	7208	7202	7203	9
7191	7198	10965	10955	9
7191	7198	10965	10967	9
7188	7189	7190	7191	9
7188	7193	7192	7191	9
7191	7192	7193	7197	9
7189	7200	7208	7202	9
7189	7200	7208	7209	9
7189	7190	7191	7192	9
7189	7188	7193	7192	9
7189	7188	7193	7197	9
7190	7191	7198	7199	9
7190	7191	7198	10965	9
7190	7191	7192	7193	9
7190	7191	7192	7195	9
7190	7189	7200	7201	9
7190	7189	7200	7208	9
7190	7189	7188	7193	9
7190	7189	7188	7196	9
7192	7191	7198	7199	9
7192	7191	7198	10965	9
7192	7191	7190	7194	9
7192	7193	7188	7196	9
7188	7189	7200	7201	9
7188	7189	7200	7208	9
7188	7189	7190	7194	9
7188	7193	7192	7195	9
7195	7192	7193	7197	9
7196	7188	7193	7197	9
7199	7198	10965	10955	9
7199	7198	10965	10967	9
7201	7200	7208	7202	9
7201	7200	7208	7209	9
2836	2837	2838	2845	9
2841	2837	2838	2845	9
2840	2839	2838	2845	9
2842	2839	2838	2845	9
2845	5634	5628	5631	9
2845	5634	5628	5629	9
2838	2837	2836	2847	9
2841	2837	2836	2847	9
2840	2835	2836	2847	9
2843	2835	2836	2847	9
2838	2845	5634	5628	9
2838	2845	5634	5635	9
2835	2836	2837	2838	9
2835	2840	2839	2838	9
2838	2839	2840	2844	9
2836	2837	2838	2839	9
2836	2835	2840	2839	9
2836	2835	2840	2844	9
2837	2838	2845	2846	9
2837	2838	2845	5634	9
2837	2838	2839	2840	9
2837	2838	2839	2842	9
2837	2836	2847	2849	9
2837	2836	2847	2848	9
2837	2836	2835	2840	9
2837	2836	2835	2843	9
2839	2838	2845	2846	9
2839	2838	2845	5634	9
2839	2838	2837	2841	9
2839	2840	2835	2843	9
2835	2836	2847	2849	9
2835	2836	2847	2848	9
2835	2836	2837	2841	9
2835	2840	2839	2842	9
2842	2839	2840	2844	9
2843	2835	2840	2844	9
2846	2845	5634	5628	9
2846	2845	5634	5635	9
9511	9510	9509	9520	9
9514	9510	9509	9520	9
9513	9508	9509	9520	9
9516	9508	9509	9520	9
9520	9528	9522	9525	9
9520	9528	9522	9523	9
9509	9510	9511	9518	9
9514	9510	9511	9518	9
9513	9512	9511	9518	9
9515	9512	9511	9518	9
9518	5304	5294	5293	9
9518	5304	5294	5297	9
9509	9520	9528	9522	9
9509	9520	9528	9529	9
9509	9510	9511	9512	9
9509	9508	9513	9512	9
9509	9508	9513	9517	9
9511	9518	5304	5294	9
9511	9518	5304	5306	9
9508	9509	9510	9511	9
9508	9513	9512	9511	9
9511	9512	9513	9517	9
9510	9509	9520	9521	9
9510	9509	9520	9528	9
9510	9509	9508	9513	9
9510	9509	9508	9516	9
9510	9511	9518	9519	9
9510	9511	9518	5304	9
9510	9511	9512	9513	9
9510	9511	9512	9515	9
9508	9509	9520	9521	9
9508	9509	9520	9528	9
9508	9509	9510	9514	9
9508	9513	9512	9515	9
9512	9511	9518	9519	9
9512	9511	9518	5304	9
9512	9511	9510	9514	9
9512	9513	9508	9516	9
9516	9508	9513	9517	9
9515	9512	9513	9517	9
9521	9520	9528	9522	9
9521	9520	9528	9529	9
9519	9518	5304	5294	9
9519	9518	5304	5306	9
13698	13697	13696	13707	9
13701	13697	13696	13707	9
13700	13695	13696	13707	9
13703	13695	13696	13707	9
1529	1530	1537	13707	9
1531	1530	1537	13707	9
13696	13697	13698	13705	9
13701	13697	13698	13705	9
13700	13699	13698	13705	9
13702	13699	13698	13705	9
13705	10614	10607	10606	9
13705	10614	10607	10608	9
1530	1537	13707	13696	9
1539	1537	13707	13696	9
13696	13697	13698	13699	9
13696	13695	13700	13699	9
13696	13695	13700	13704	9
13698	13705	10614	10607	9
13698	13705	10614	10616	9
13695	13696	13697	13698	9
13695	13700	13699	13698	9
13698	13699	13700	13704	9
13697	13696	13707	13708	9
1537	13707	13696	13697	9
13697	13696	13695	13700	9
13697	13696	13695	13703	9
13697	13698	13705	13706	9
13697	13698	13705	10614	9
13697	13698	13699	13700	9
13697	13698	13699	13702	9
13695	13696	13707	13708	9
1537	13707	13696	13695	9
13695	13696	13697	13701	9
13695	13700	13699	13702	9
13699	13698	13705	13706	9
13699	13698	13705	10614	9
13699	13698	13697	13701	9
13699	13700	13695	13703	9
13703	13695	13700	13704	9
13702	13699	13700	13704	9
1530	1537	13707	13708	9
1539	1537	13707	13708	9
13706	13705	10614	10607	9
13706	13705	10614	10616	9
54	53	52	63	9
57	53	52	63	9
56	51	52	63	9
59	51	52	63	9
2532	2531	2537	63	9
2534	2531	2537	63	9
52	53	54	61	9
57	53	54	61	9
56	55	54	61	9
58	55	54	61	9
41	40	42	61	9
39	40	42	61	9
2531	2537	63	52	9
2538	2537	63	52	9
52	53	54	55	9
52	51	56	55	9
52	51	56	60	9
40	42	61	54	9
43	42	61	54	9
51	52	53	54	9
51	56	55	54	9
54	55	56	60	9
53	52	63	64	9
2537	63	52	53	9
53	52	51	56	9
53	52	51	59	9
53	54	61	62	9
42	61	54	53	9
53	54	55	56	9
53	54	55	58	9
51	52	63	64	9
2537	63	52	51	9
51	52	53	57	9
51	56	55	58	9
55	54	61	62	9
42	61	54	55	9
55	54	53	57	9
55	56	51	59	9
59	51	56	60	9
58	55	56	60	9
2531	2537	63	64	9
2538	2537	63	64	9
40	42	61	62	9
43	42	61	62	9
9570	9569	9568	9579	9
9573	9569	9568	9579	9
9572	9567	9568	9579	9
9575	9567	9568	9579	9
9579	5478	5471	5472	9
9579	5478	5471	5470	9
9568	9569	9570	9577	9
9573	9569	9570	9577	9
9572	9571	9570	9577	9
9574	9571	9570	9577	9
9577	9587	9581	9582	9
9577	9587	9581	9584	9
9568	9579	5478	5471	9
9568	9579	5478	5480	9
9568	9569	9570	9571	9
9568	9567	9572	9571	9
9568	9567	9572	9576	9
9570	9577	9587	9581	9
9570	9577	9587	9588	9
9567	9568	9569	9570	9
9567	9572	9571	9570	9
9570	9571	9572	9576	9
9569	9568	9579	9580	9
9569	9568	9579	5478	9
9569	9568	9567	9572	9
9569	9568	9567	9575	9
9569	9570	9577	9578	9
9569	9570	9577	9587	9
9569	9570	9571	9572	9
9569	9570	9571	9574	9
9567	9568	9579	9580	9
9567	9568	9579	5478	9
9567	9568	9569	9573	9
9567	9572	9571	9574	9
9571	9570	9577	9578	9
9571	9570	9577	9587	9
9571	9570	9569	9573	9
9571	9572	9567	9575	9
9575	9567	9572	9576	9
9574	9571	9572	9576	9
9580	9579	5478	5471	9
9580	9579	5478	5480	9
9578	9577	9587	9581	9
9578	9577	9587	9588	9
4220	4219	4218	4229	9
4223	4219	4218	4229	9
4222	4217	4218	4229	9
4225	4217	4218	4229	9
4229	10380	10370	10369	9
4229	10380	10370	10373	9
4218	4219	4220	4227	9
4223	4219	4220	4227	9
4222	4221	4220	4227	9
4224	4221	4220	4227	9
4227	4237	4231	4234	9
4227	4237	4231	4232	9
4218	4229	10380	10370	9
4218	4229	10380	10382	9
4218	4219	4220	4221	9
4218	4217	4222	4221	9
4218	4217	4222	4226	9
4220	4227	4237	4231	9
4220	4227	4237	4238	9
4217	4218	4219	4220	9
4217	4222	4221	4220	9
4220	4221	4222	4226	9
4219	4218	4229	4230	9
4219	4218	4229	10380	9
4219	4218	4217	4222	9
4219	4218	4217	4225	9
4219	4220	4227	4228	9
4219	4220	4227	4237	9
4219	4220	4221	4222	9
4219	4220	4221	4224	9
4217	4218	4229	4230	9
4217	4218	4229	10380	9
4217	4218	4219	4223	9
4217	4222	4221	4224	9
4221	4220	4227	4228	9
4221	4220	4227	4237	9
4221	4220	4219	4223	9
4221	4222	4217	4225	9
4225	4217	4222	4226	9
4224	4221	4222	4226	9
4230	4229	10380	10370	9
4230	4229	10380	10382	9
4228	4227	4237	4231	9
4228	4227	4237	4238	9
11290	11289	11288	11299	9
11293	11289	11288	11299	9
11292	11287	11288	11299	9
11295	11287	11288	11299	9
11299	4039	4032	4031	9
11299	4039	4032	4033	9
11288	11289	11290	11297	9
11293	11289	11290	11297	9
11292	11291	11290	11297	9
11294	11291	11290	11297	9
11297	10439	10429	10432	9
11297	10439	10429	10428	9
11288	11299	4039	4032	9
11288	11299	4039	4041	9
11288	11289	11290	11291	9
11288	11287	11292	11291	9
11288	11287	11292	11296	9
11290	11297	10439	10429	9
11290	11297	10439	10441	9
11287	11288	11289	11290	9
11287	11292	11291	11290	9
11290	11291	11292	11296	9
11289	11288	11299	11300	9
11289	11288	11299	4039	9
11289	11288	11287	11292	9
11289	11288	11287	11295	9
11289	11290	11297	11298	9
11289	11290	11297	10439	9
11289	11290	11291	11292	9
11289	11290	11291	11294	9
11287	11288	11299	11300	9
11287	11288	11299	4039	9
11287	11288	11289	11293	9
11287	11292	11291	11294	9
11291	11290	11297	11298	9
11291	11290	11297	10439	9
11291	11290	11289	11293	9
11291	11292	11287	11295	9
11295	11287	11292	11296	9
11294	11291	11292	11296	9
11300	11299	4039	4032	9
11300	11299	4039	4041	9
11298	11297	10439	10429	9
11298	11297	10439	10441	9
12256	12255	12254	12265	9
12259	12255	12254	12265	9
12258	12253	12254	12265	9
12261	12253	12254	12265	9
12265	9754	9744	9743	9
12265	9754	9744	9747	9
12254	12255	12256	12263	9
12259	12255	12256	12263	9
12258	12257	12256	12263	9
12260	12257	12256	12263	9
12263	5742	5732	5731	9
12263	5742	5732	5735	9
12254	12265	9754	9744	9
12254	12265	9754	9756	9
12254	12255	12256	12257	9
12254	12253	12258	12257	9
12254	12253	12258	12262	9
12256	12263	5742	5732	9
12256	12263	5742	5744	9
12253	12254	12255	12256	9
12253	12258	12257	12256	9
12256	12257	12258	12262	9
12255	12254	12265	12266	9
12255	12254	12265	9754	9
12255	12254	12253	12258	9
12255	12254	12253	12261	9
12255	12256	12263	12264	9
12255	12256	12263	5742	9
12255	12256	12257	12258	9
12255	12256	12257	12260	9
12253	12254	12265	12266	9
12253	12254	12265	9754	9
12253	12254	12255	12259	9
12253	12258	12257	12260	9
12257	12256	12263	12264	9
12257	12256	12263	5742	9
12257	12256	12255	12259	9
12257	12258	12253	12261	9
12261	12253	12258	12262	9
12260	12257	12258	12262	9
12266	12265	9754	9744	9
12266	12265	9754	9756	9
12264	12263	5742	5732	9
12264	12263	5742	5744	9
11346	11345	11344	11355	9
11349	11345	11344	11355	9
11348	11343	11344	11355	9
11351	11343	11344	11355	9
11355	4127	4117	4116	9
11355	4127	4117	4120	9
11344	11345	11346	11353	9
11349	11345	11346	11353	9
11348	11347	11346	11353	9
11350	11347	11346	11353	9
11353	7855	7845	7844	9
11353	7855	7845	7848	9
11344	11355	4127	4117	9
11344	11355	4127	4129	9
11344	11345	11346	11347	9
11344	11343	11348	11347	9
11344	11343	11348	11352	9
11346	11353	7855	7845	9
11346	11353	7855	7857	9
11343	11344	11345	11346	9
11343	11348	11347	11346	9
11346	11347	11348	11352	9
11345	11344	11355	11356	9
11345	11344	11355	4127	9
11345	11344	11343	11348	9
11345	11344	11343	11351	9
11345	11346	11353	11354	9
11345	11346	11353	7855	9
11345	11346	11347	11348	9
11345	11346	11347	11350	9
11343	11344	11355	11356	9
11343	11344	11355	4127	9
11343	11344	11345	11349	9
11343	11348	11347	11350	9
11347	11346	11353	11354	9
11347	11346	11353	7855	9
11347	11346	11345	11349	9
11347	11348	11343	11351	9
11351	11343	11348	11352	9
11350	11347	11348	11352	9
11356	11355	4127	4117	9
11356	11355	4127	4129	9
11354	11353	7855	7845	9
11354	11353	7855	7857	9
8034	8035	8036	8043	9
8039	8035	8036	8043	9
8038	8037	8036	8043	9
8040	8037	8036	8043	9
8043	8053	8047	8048	9
8043	8053	8047	8050	9
8036	8035	8034	8045	9
8039	8035	8034	8045	9
8038	8033	8034	8045	9
8041	8033	8034	8045	9
8045	7156	7146	7149	9
8045	7156	7146	7145	9
8036	8043	8053	8047	9
8036	8043	8053	8054	9
8036	8035	8034	8033	9
8036	8037	8038	8033	9
8036	8037	8038	8042	9
8034	8045	7156	7146	9
8034	8045	7156	7158	9
8037	8036	8035	8034	9
8037	8038	8033	8034	9
8034	8033	8038	8042	9
8035	8036	8043	8044	9
8035	8036	8043	8053	9
8035	8036	8037	8038	9
8035	8036	8037	8040	9
8035	8034	8045	8046	9
8035	8034	8045	7156	9
8035	8034	8033	8038	9
8035	8034	8033	8041	9
8037	8036	8043	8044	9
8037	8036	8043	8053	9
8037	8036	8035	8039	9
8037	8038	8033	8041	9
8033	8034	8045	8046	9
8033	8034	8045	7156	9
8033	8034	8035	8039	9
8033	8038	8037	8040	9
8040	8037	8038	8042	9
8041	8033	8038	8042	9
8044	8043	8053	8047	9
8044	8043	8053	8054	9
8046	8045	7156	7146	9
8046	8045	7156	7158	9
9804	9803	9802	9813	9
9807	9803	9802	9813	9
9806	9801	9802	9813	9
9809	9801	9802	9813	9
9813	9821	9815	9816	9
9813	9821	9815	9818	9
9802	9803	9804	9811	9
9807	9803	9804	9811	9
9806	9805	9804	9811	9
9808	9805	9804	9811	9
9811	10374	10368	10369	9
9811	10374	10368	10371	9
9802	9813	9821	9815	9
9802	9813	9821	9822	9
9802	9803	9804	9805	9
9802	9801	9806	9805	9
9802	9801	9806	9810	9
9804	9811	10374	10368	9
9804	9811	10374	10375	9
9801	9802	9803	9804	9
9801	9806	9805	9804	9
9804	9805	9806	9810	9
9803	9802	9813	9814	9
9803	9802	9813	9821	9
9803	9802	9801	9806	9
9803	9802	9801	9809	9
9803	9804	9811	9812	9
9803	9804	9811	10374	9
9803	9804	9805	9806	9
9803	9804	9805	9808	9
9801	9802	9813	9814	9
9801	9802	9813	9821	9
9801	9802	9803	9807	9
9801	9806	9805	9808	9
9805	9804	9811	9812	9
9805	9804	9811	10374	9
9805	9804	9803	9807	9
9805	9806	9801	9809	9
9809	9801	9806	9810	9
9808	9805	9806	9810	9
9814	9813	9821	9815	9
9814	9813	9821	9822	9
9812	9811	10374	10368	9
9812	9811	10374	10375	9
13768	13767	13766	13777	9
13771	13767	13766	13777	9
13770	13765	13766	13777	9
13773	13765	13766	13777	9
1343	1342	1348	13777	9
1345	1342	1348	13777	9
13766	13767	13768	13775	9
13771	13767	13768	13775	9
13770	13769	13768	13775	9
13772	13769	13768	13775	9
1639	1638	1640	13775	9
1637	1638	1640	13775	9
1342	1348	13777	13766	9
1349	1348	13777	13766	9
13766	13767	13768	13769	9
13766	13765	13770	13769	9
13766	13765	13770	13774	9
1638	1640	13775	13768	9
1641	1640	13775	13768	9
13765	13766	13767	13768	9
13765	13770	13769	13768	9
13768	13769	13770	13774	9
13767	13766	13777	13778	9
1348	13777	13766	13767	9
13767	13766	13765	13770	9
13767	13766	13765	13773	9
13767	13768	13775	13776	9
1640	13775	13768	13767	9
13767	13768	13769	13770	9
13767	13768	13769	13772	9
13765	13766	13777	13778	9
1348	13777	13766	13765	9
13765	13766	13767	13771	9
13765	13770	13769	13772	9
13769	13768	13775	13776	9
1640	13775	13768	13769	9
13769	13768	13767	13771	9
13769	13770	13765	13773	9
13773	13765	13770	13774	9
13772	13769	13770	13774	9
1342	1348	13777	13778	9
1349	1348	13777	13778	9
1638	1640	13775	13776	9
1641	1640	13775	13776	9
8943	8942	8941	8952	9
8946	8942	8941	8952	9
8945	8940	8941	8952	9
8948	8940	8941	8952	9
8952	8960	8954	8957	9
8952	8960	8954	8955	9
8941	8942	8943	8950	9
8946	8942	8943	8950	9
8945	8944	8943	8950	9
8947	8944	8943	8950	9
8950	8527	8520	8521	9
8950	8527	8520	8519	9
8941	8952	8960	8954	9
8941	8952	8960	8961	9
8941	8942	8943	8944	9
8941	8940	8945	8944	9
8941	8940	8945	8949	9
8943	8950	8527	8520	9
8943	8950	8527	8529	9
8940	8941	8942	8943	9
8940	8945	8944	8943	9
8943	8944	8945	8949	9
8942	8941	8952	8953	9
8942	8941	8952	8960	9
8942	8941	8940	8945	9
8942	8941	8940	8948	9
8942	8943	8950	8951	9
8942	8943	8950	8527	9
8942	8943	8944	8945	9
8942	8943	8944	8947	9
8940	8941	8952	8953	9
8940	8941	8952	8960	9
8940	8941	8942	8946	9
8940	8945	8944	8947	9
8944	8943	8950	8951	9
8944	8943	8950	8527	9
8944	8943	8942	8946	9
8944	8945	8940	8948	9
8948	8940	8945	8949	9
8947	8944	8945	8949	9
8953	8952	8960	8954	9
8953	8952	8960	8961	9
8951	8950	8527	8520	9
8951	8950	8527	8529	9
10414	10415	10416	10423	9
10419	10415	10416	10423	9
10418	10417	10416	10423	9
10420	10417	10416	10423	9
10423	10433	10427	10430	9
10423	10433	10427	10428	9
10416	10415	10414	10425	9
10419	10415	10414	10425	9
10418	10413	10414	10425	9
10421	10413	10414	10425	9
10425	11069	11059	11058	9
10425	11069	11059	11062	9
10416	10423	10433	10427	9
10416	10423	10433	10434	9
10413	10414	10415	10416	9
10413	10418	10417	10416	9
10416	10417	10418	10422	9
10414	10425	11069	11059	9
10414	10425	11069	11071	9
10414	10415	10416	10417	9
10414	10413	10418	10417	9
10414	10413	10418	10422	9
10415	10416	10423	10424	9
10415	10416	10423	10433	9
10415	10416	10417	10418	9
10415	10416	10417	10420	9
10415	10414	10425	10426	9
10415	10414	10425	11069	9
10415	10414	10413	10418	9
10415	10414	10413	10421	9
10417	10416	10423	10424	9
10417	10416	10423	10433	9
10417	10416	10415	10419	9
10417	10418	10413	10421	9
10413	10414	10425	10426	9
10413	10414	10425	11069	9
10413	10414	10415	10419	9
10413	10418	10417	10420	9
10420	10417	10418	10422	9
10421	10413	10418	10422	9
10424	10423	10433	10427	9
10424	10423	10433	10434	9
10426	10425	11069	11059	9
10426	10425	11069	11071	9
4932	4931	4930	4941	9
4935	4931	4930	4941	9
4934	4929	4930	4941	9
4937	4929	4930	4941	9
4941	4949	4943	4944	9
4941	4949	4943	4946	9
4930	4931	4932	4939	9
4935	4931	4932	4939	9
4934	4933	4932	4939	9
4936	4933	4932	4939	9
4939	11068	11061	11062	9
4939	11068	11061	11060	9
4930	4941	4949	4943	9
4930	4941	4949	4950	9
4930	4931	4932	4933	9
4930	4929	4934	4933	9
4930	4929	4934	4938	9
4932	4939	11068	11061	9
4932	4939	11068	11070	9
4929	4930	4931	4932	9
4929	4934	4933	4932	9
4932	4933	4934	4938	9
4931	4930	4941	4942	9
4931	4930	4941	4949	9
4931	4930	4929	4934	9
4931	4930	4929	4937	9
4931	4932	4939	4940	9
4931	4932	4939	11068	9
4931	4932	4933	4934	9
4931	4932	4933	4936	9
4929	4930	4941	4942	9
4929	4930	4941	4949	9
4929	4930	4931	4935	9
4929	4934	4933	4936	9
4933	4932	4939	4940	9
4933	4932	4939	11068	9
4933	4932	4931	4935	9
4933	4934	4929	4937	9
4937	4929	4934	4938	9
4936	4933	4934	4938	9
4942	4941	4949	4943	9
4942	4941	4949	4950	9
4940	4939	11068	11061	9
4940	4939	11068	11070	9
3046	3047	3048	3055	9
3051	3047	3048	3055	9
3050	3049	3048	3055	9
3052	3049	3048	3055	9
3055	7433	7423	7426	9
3055	7433	7423	7422	9
3048	3047	3046	3057	9
3051	3047	3046	3057	9
3050	3045	3046	3057	9
3053	3045	3046	3057	9
3048	3055	7433	7423	9
3048	3055	7433	7435	9
3045	3046	3047	3048	9
3045	3050	3049	3048	9
3048	3049	3050	3054	9
3046	3047	3048	3049	9
3046	3045	3050	3049	9
3046	3045	3050	3054	9
3047	3048	3055	3056	9
3047	3048	3055	7433	9
3047	3048	3049	3050	9
3047	3048	3049	3052	9
3047	3046	3057	3058	9
3047	3046	3057	3059	9
3047	3046	3045	3050	9
3047	3046	3045	3053	9
3049	3048	3055	3056	9
3049	3048	3055	7433	9
3049	3048	3047	3051	9
3049	3050	3045	3053	9
3045	3046	3057	3058	9
3045	3046	3057	3059	9
3045	3046	3047	3051	9
3045	3050	3049	3052	9
3052	3049	3050	3054	9
3053	3045	3050	3054	9
3056	3055	7433	7423	9
3056	3055	7433	7435	9
10942	10941	10940	10951	9
10945	10941	10940	10951	9
10944	10939	10940	10951	9
10947	10939	10940	10951	9
10951	10365	10355	10354	9
10951	10365	10355	10358	9
10940	10941	10942	10949	9
10945	10941	10942	10949	9
10944	10943	10942	10949	9
10946	10943	10942	10949	9
10949	10959	10953	10954	9
10949	10959	10953	10956	9
10940	10951	10365	10355	9
10940	10951	10365	10367	9
10940	10941	10942	10943	9
10940	10939	10944	10943	9
10940	10939	10944	10948	9
10942	10949	10959	10953	9
10942	10949	10959	10960	9
10939	10940	10941	10942	9
10939	10944	10943	10942	9
10942	10943	10944	10948	9
10941	10940	10951	10952	9
10941	10940	10951	10365	9
10941	10940	10939	10944	9
10941	10940	10939	10947	9
10941	10942	10949	10950	9
10941	10942	10949	10959	9
10941	10942	10943	10944	9
10941	10942	10943	10946	9
10939	10940	10951	10952	9
10939	10940	10951	10365	9
10939	10940	10941	10945	9
10939	10944	10943	10946	9
10943	10942	10949	10950	9
10943	10942	10949	10959	9
10943	10942	10941	10945	9
10943	10944	10939	10947	9
10947	10939	10944	10948	9
10946	10943	10944	10948	9
10952	10951	10365	10355	9
10952	10951	10365	10367	9
10950	10949	10959	10953	9
10950	10949	10959	10960	9
11948	11947	11946	11957	9
11951	11947	11946	11957	9
11950	11945	11946	11957	9
11953	11945	11946	11957	9
2117	2116	2123	11957	9
2115	2116	2123	11957	9
11946	11947	11948	11955	9
11951	11947	11948	11955	9
11950	11949	11948	11955	9
11952	11949	11948	11955	9
11955	5158	5151	5150	9
11955	5158	5151	5152	9
2116	2123	11957	11946	9
2125	2123	11957	11946	9
11946	11947	11948	11949	9
11946	11945	11950	11949	9
11946	11945	11950	11954	9
11948	11955	5158	5151	9
11948	11955	5158	5160	9
11945	11946	11947	11948	9
11945	11950	11949	11948	9
11948	11949	11950	11954	9
11947	11946	11957	11958	9
2123	11957	11946	11947	9
11947	11946	11945	11950	9
11947	11946	11945	11953	9
11947	11948	11955	11956	9
11947	11948	11955	5158	9
11947	11948	11949	11950	9
11947	11948	11949	11952	9
11945	11946	11957	11958	9
2123	11957	11946	11945	9
11945	11946	11947	11951	9
11945	11950	11949	11952	9
11949	11948	11955	11956	9
11949	11948	11955	5158	9
11949	11948	11947	11951	9
11949	11950	11945	11953	9
11953	11945	11950	11954	9
11952	11949	11950	11954	9
2116	2123	11957	11958	9
2125	2123	11957	11958	9
11956	11955	5158	5151	9
11956	11955	5158	5160	9
8605	8606	8607	8614	9
8610	8606	8607	8614	9
8609	8608	8607	8614	9
8611	8608	8607	8614	9
8614	8624	8618	8621	9
8614	8624	8618	8619	9
8607	8606	8605	8616	9
8610	8606	8605	8616	9
8609	8604	8605	8616	9
8612	8604	8605	8616	9
8616	6049	6039	6042	9
8616	6049	6039	6038	9
8607	8614	8624	8618	9
8607	8614	8624	8625	9
8607	8606	8605	8604	9
8607	8608	8609	8604	9
8607	8608	8609	8613	9
8605	8616	6049	6039	9
8605	8616	6049	6051	9
8608	8607	8606	8605	9
8608	8609	8604	8605	9
8605	8604	8609	8613	9
8606	8607	8614	8615	9
8606	8607	8614	8624	9
8606	8607	8608	8609	9
8606	8607	8608	8611	9
8606	8605	8616	8617	9
8606	8605	8616	6049	9
8606	8605	8604	8609	9
8606	8605	8604	8612	9
8608	8607	8614	8615	9
8608	8607	8614	8624	9
8608	8607	8606	8610	9
8608	8609	8604	8612	9
8604	8605	8616	8617	9
8604	8605	8616	6049	9
8604	8605	8606	8610	9
8604	8609	8608	8611	9
8611	8608	8609	8613	9
8612	8604	8609	8613	9
8615	8614	8624	8618	9
8615	8614	8624	8625	9
8617	8616	6049	6039	9
8617	8616	6049	6051	9
3303	3302	3301	3312	9
3306	3302	3301	3312	9
3305	3300	3301	3312	9
3308	3300	3301	3312	9
3301	3302	3303	3310	9
3306	3302	3303	3310	9
3305	3304	3303	3310	9
3307	3304	3303	3310	9
3310	8975	8969	8972	9
3310	8975	8969	8970	9
3301	3302	3303	3304	9
3301	3300	3305	3304	9
3301	3300	3305	3309	9
3303	3310	8975	8969	9
3303	3310	8975	8976	9
3300	3301	3302	3303	9
3300	3305	3304	3303	9
3303	3304	3305	3309	9
3302	3301	3312	3314	9
3302	3301	3312	3313	9
3302	3301	3300	3305	9
3302	3301	3300	3308	9
3302	3303	3310	3311	9
3302	3303	3310	8975	9
3302	3303	3304	3305	9
3302	3303	3304	3307	9
3300	3301	3312	3314	9
3300	3301	3312	3313	9
3300	3301	3302	3306	9
3300	3305	3304	3307	9
3304	3303	3310	3311	9
3304	3303	3310	8975	9
3304	3303	3302	3306	9
3304	3305	3300	3308	9
3308	3300	3305	3309	9
3307	3304	3305	3309	9
3311	3310	8975	8969	9
3311	3310	8975	8976	9
3228	3227	3226	3237	9
3231	3227	3226	3237	9
3230	3225	3226	3237	9
3233	3225	3226	3237	9
3226	3227	3228	3235	9
3231	3227	3228	3235	9
3230	3229	3228	3235	9
3232	3229	3228	3235	9
3235	8566	8560	8561	9
3235	8566	8560	8563	9
3226	3227	3228	3229	9
3226	3225	3230	3229	9
3226	3225	3230	3234	9
3228	3235	8566	8560	9
3228	3235	8566	8567	9
3225	3226	3227	3228	9
3225	3230	3229	3228	9
3228	3229	3230	3234	9
3227	3226	3237	3239	9
3227	3226	3237	3238	9
3227	3226	3225	3230	9
3227	3226	3225	3233	9
3227	3228	3235	3236	9
3227	3228	3235	8566	9
3227	3228	3229	3230	9
3227	3228	3229	3232	9
3225	3226	3237	3239	9
3225	3226	3237	3238	9
3225	3226	3227	3231	9
3225	3230	3229	3232	9
3229	3228	3235	3236	9
3229	3228	3235	8566	9
3229	3228	3227	3231	9
3229	3230	3225	3233	9
3233	3225	3230	3234	9
3232	3229	3230	3234	9
3236	3235	8566	8560	9
3236	3235	8566	8567	9
2851	2852	2853	2860	9
2856	2852	2853	2860	9
2855	2854	2853	2860	9
2857	2854	2853	2860	9
2860	5639	5632	5631	9
2860	5639	5632	5633	9
2853	2852	2851	2862	9
2856	2852	2851	2862	9
2855	2850	2851	2862	9
2858	2850	2851	2862	9
2853	2860	5639	5632	9
2853	2860	5639	5641	9
2850	2851	2852	2853	9
2850	2855	2854	2853	9
2853	2854	2855	2859	9
2851	2852	2853	2854	9
2851	2850	2855	2854	9
2851	2850	2855	2859	9
2852	2853	2860	2861	9
2852	2853	2860	5639	9
2852	2853	2854	2855	9
2852	2853	2854	2857	9
2852	2851	2862	2863	9
2852	2851	2862	2864	9
2852	2851	2850	2855	9
2852	2851	2850	2858	9
2854	2853	2860	2861	9
2854	2853	2860	5639	9
2854	2853	2852	2856	9
2854	2855	2850	2858	9
2850	2851	2862	2863	9
2850	2851	2862	2864	9
2850	2851	2852	2856	9
2850	2855	2854	2857	9
2857	2854	2855	2859	9
2858	2850	2855	2859	9
2861	2860	5639	5632	9
2861	2860	5639	5641	9
13404	13403	13402	13413	9
13407	13403	13402	13413	9
13406	13401	13402	13413	9
13409	13401	13402	13413	9
13413	8571	8564	8563	9
13413	8571	8564	8565	9
13402	13403	13404	13411	9
13407	13403	13404	13411	9
13406	13405	13404	13411	9
13408	13405	13404	13411	9
13411	8426	8416	8415	9
13411	8426	8416	8419	9
13402	13413	8571	8564	9
13402	13413	8571	8573	9
13402	13403	13404	13405	9
13402	13401	13406	13405	9
13402	13401	13406	13410	9
13404	13411	8426	8416	9
13404	13411	8426	8428	9
13401	13402	13403	13404	9
13401	13406	13405	13404	9
13404	13405	13406	13410	9
13403	13402	13413	13414	9
13403	13402	13413	8571	9
13403	13402	13401	13406	9
13403	13402	13401	13409	9
13403	13404	13411	13412	9
13403	13404	13411	8426	9
13403	13404	13405	13406	9
13403	13404	13405	13408	9
13401	13402	13413	13414	9
13401	13402	13413	8571	9
13401	13402	13403	13407	9
13401	13406	13405	13408	9
13405	13404	13411	13412	9
13405	13404	13411	8426	9
13405	13404	13403	13407	9
13405	13406	13401	13409	9
13409	13401	13406	13410	9
13408	13405	13406	13410	9
13414	13413	8571	8564	9
13414	13413	8571	8573	9
13412	13411	8426	8416	9
13412	13411	8426	8428	9
3153	3152	3151	3162	9
3156	3152	3151	3162	9
3155	3150	3151	3162	9
3158	3150	3151	3162	9
3151	3152	3153	3160	9
3156	3152	3153	3160	9
3155	3154	3153	3160	9
3157	3154	3153	3160	9
3160	8132	8122	8121	9
3160	8132	8122	8125	9
3151	3152	3153	3154	9
3151	3150	3155	3154	9
3151	3150	3155	3159	9
3153	3160	8132	8122	9
3153	3160	8132	8134	9
3150	3151	3152	3153	9
3150	3155	3154	3153	9
3153	3154	3155	3159	9
3152	3151	3162	3163	9
3152	3151	3162	3164	9
3152	3151	3150	3155	9
3152	3151	3150	3158	9
3152	3153	3160	3161	9
3152	3153	3160	8132	9
3152	3153	3154	3155	9
3152	3153	3154	3157	9
3150	3151	3162	3163	9
3150	3151	3162	3164	9
3150	3151	3152	3156	9
3150	3155	3154	3157	9
3154	3153	3160	3161	9
3154	3153	3160	8132	9
3154	3153	3152	3156	9
3154	3155	3150	3158	9
3158	3150	3155	3159	9
3157	3154	3155	3159	9
3161	3160	8132	8122	9
3161	3160	8132	8134	9
2396	2395	2394	2405	9
2399	2395	2394	2405	9
2398	2393	2394	2405	9
2401	2393	2394	2405	9
2377	2376	2382	2405	9
2379	2376	2382	2405	9
2394	2395	2396	2403	9
2399	2395	2396	2403	9
2398	2397	2396	2403	9
2400	2397	2396	2403	9
2403	6048	6041	6040	9
2403	6048	6041	6042	9
2376	2382	2405	2394	9
2383	2382	2405	2394	9
2394	2395	2396	2397	9
2394	2393	2398	2397	9
2394	2393	2398	2402	9
2396	2403	6048	6041	9
2396	2403	6048	6050	9
2393	2394	2395	2396	9
2393	2398	2397	2396	9
2396	2397	2398	2402	9
2395	2394	2405	2406	9
2382	2405	2394	2395	9
2395	2394	2393	2398	9
2395	2394	2393	2401	9
2395	2396	2403	2404	9
2395	2396	2403	6048	9
2395	2396	2397	2398	9
2395	2396	2397	2400	9
2393	2394	2405	2406	9
2382	2405	2394	2393	9
2393	2394	2395	2399	9
2393	2398	2397	2400	9
2397	2396	2403	2404	9
2397	2396	2403	6048	9
2397	2396	2395	2399	9
2397	2398	2393	2401	9
2401	2393	2398	2402	9
2400	2397	2398	2402	9
2376	2382	2405	2406	9
2383	2382	2405	2406	9
2404	2403	6048	6041	9
2404	2403	6048	6050	9
10037	10036	10035	10046	9
10040	10036	10035	10046	9
10039	10034	10035	10046	9
10042	10034	10035	10046	9
10046	10054	10048	10051	9
10046	10054	10048	10049	9
10035	10036	10037	10044	9
10040	10036	10037	10044	9
10039	10038	10037	10044	9
10041	10038	10037	10044	9
10044	11063	11057	11058	9
10044	11063	11057	11060	9
10035	10046	10054	10048	9
10035	10046	10054	10055	9
10035	10036	10037	10038	9
10035	10034	10039	10038	9
10035	10034	10039	10043	9
10037	10044	11063	11057	9
10037	10044	11063	11064	9
10034	10035	10036	10037	9
10034	10039	10038	10037	9
10037	10038	10039	10043	9
10036	10035	10046	10047	9
10036	10035	10046	10054	9
10036	10035	10034	10039	9
10036	10035	10034	10042	9
10036	10037	10044	10045	9
10036	10037	10044	11063	9
10036	10037	10038	10039	9
10036	10037	10038	10041	9
10034	10035	10046	10047	9
10034	10035	10046	10054	9
10034	10035	10036	10040	9
10034	10039	10038	10041	9
10038	10037	10044	10045	9
10038	10037	10044	11063	9
10038	10037	10036	10040	9
10038	10039	10034	10042	9
10042	10034	10039	10043	9
10041	10038	10039	10043	9
10047	10046	10054	10048	9
10047	10046	10054	10055	9
10045	10044	11063	11057	9
10045	10044	11063	11064	9
5194	5193	5192	5203	9
5197	5193	5192	5203	9
5196	5191	5192	5203	9
5199	5191	5192	5203	9
5203	7374	7364	7363	9
5203	7374	7364	7367	9
5192	5193	5194	5201	9
5197	5193	5194	5201	9
5196	5195	5194	5201	9
5198	5195	5194	5201	9
5201	5211	5205	5208	9
5201	5211	5205	5206	9
5192	5203	7374	7364	9
5192	5203	7374	7376	9
5192	5193	5194	5195	9
5192	5191	5196	5195	9
5192	5191	5196	5200	9
5194	5201	5211	5205	9
5194	5201	5211	5212	9
5191	5192	5193	5194	9
5191	5196	5195	5194	9
5194	5195	5196	5200	9
5193	5192	5203	5204	9
5193	5192	5203	7374	9
5193	5192	5191	5196	9
5193	5192	5191	5199	9
5193	5194	5201	5202	9
5193	5194	5201	5211	9
5193	5194	5195	5196	9
5193	5194	5195	5198	9
5191	5192	5203	5204	9
5191	5192	5203	7374	9
5191	5192	5193	5197	9
5191	5196	5195	5198	9
5195	5194	5201	5202	9
5195	5194	5201	5211	9
5195	5194	5193	5197	9
5195	5196	5191	5199	9
5199	5191	5196	5200	9
5198	5195	5196	5200	9
5204	5203	7374	7364	9
5204	5203	7374	7376	9
5202	5201	5211	5205	9
5202	5201	5211	5212	9
11484	11485	11486	11493	9
11489	11485	11486	11493	9
11488	11487	11486	11493	9
11490	11487	11486	11493	9
541	540	547	11493	9
539	540	547	11493	9
11486	11485	11484	11495	9
11489	11485	11484	11495	9
11488	11483	11484	11495	9
11491	11483	11484	11495	9
11495	4344	4337	4336	9
11495	4344	4337	4338	9
540	547	11493	11486	9
549	547	11493	11486	9
11483	11484	11485	11486	9
11483	11488	11487	11486	9
11486	11487	11488	11492	9
11484	11495	4344	4337	9
11484	11495	4344	4346	9
11484	11485	11486	11487	9
11484	11483	11488	11487	9
11484	11483	11488	11492	9
11485	11486	11493	11494	9
547	11493	11486	11485	9
11485	11486	11487	11488	9
11485	11486	11487	11490	9
11485	11484	11495	11496	9
11485	11484	11495	4344	9
11485	11484	11483	11488	9
11485	11484	11483	11491	9
11487	11486	11493	11494	9
547	11493	11486	11487	9
11487	11486	11485	11489	9
11487	11488	11483	11491	9
11483	11484	11495	11496	9
11483	11484	11495	4344	9
11483	11484	11485	11489	9
11483	11488	11487	11490	9
11490	11487	11488	11492	9
11491	11483	11488	11492	9
540	547	11493	11494	9
549	547	11493	11494	9
11496	11495	4344	4337	9
11496	11495	4344	4346	9
5034	5033	5032	5043	9
5037	5033	5032	5043	9
5036	5031	5032	5043	9
5039	5031	5032	5043	9
5043	5051	5045	5046	9
5043	5051	5045	5048	9
5032	5033	5034	5041	9
5037	5033	5034	5041	9
5036	5035	5034	5041	9
5038	5035	5034	5041	9
5041	8366	8359	8358	9
5041	8366	8359	8360	9
5032	5043	5051	5045	9
5032	5043	5051	5052	9
5032	5033	5034	5035	9
5032	5031	5036	5035	9
5032	5031	5036	5040	9
5034	5041	8366	8359	9
5034	5041	8366	8368	9
5031	5032	5033	5034	9
5031	5036	5035	5034	9
5034	5035	5036	5040	9
5033	5032	5043	5044	9
5033	5032	5043	5051	9
5033	5032	5031	5036	9
5033	5032	5031	5039	9
5033	5034	5041	5042	9
5033	5034	5041	8366	9
5033	5034	5035	5036	9
5033	5034	5035	5038	9
5031	5032	5043	5044	9
5031	5032	5043	5051	9
5031	5032	5033	5037	9
5031	5036	5035	5038	9
5035	5034	5041	5042	9
5035	5034	5041	8366	9
5035	5034	5033	5037	9
5035	5036	5031	5039	9
5039	5031	5036	5040	9
5038	5035	5036	5040	9
5044	5043	5051	5045	9
5044	5043	5051	5052	9
5042	5041	8366	8359	9
5042	5041	8366	8368	9
278	277	276	287	9
281	277	276	287	9
280	275	276	287	9
283	275	276	287	9
265	264	266	287	9
263	264	266	287	9
276	277	278	285	9
281	277	278	285	9
280	279	278	285	9
282	279	278	285	9
285	5917	5907	5910	9
285	5917	5907	5906	9
264	266	287	276	9
267	266	287	276	9
276	277	278	279	9
276	275	280	279	9
276	275	280	284	9
278	285	5917	5907	9
278	285	5917	5919	9
275	276	277	278	9
275	280	279	278	9
278	279	280	284	9
277	276	287	288	9
266	287	276	277	9
277	276	275	280	9
277	276	275	283	9
277	278	285	286	9
277	278	285	5917	9
277	278	279	280	9
277	278	279	282	9
275	276	287	288	9
266	287	276	275	9
275	276	277	281	9
275	280	279	282	9
279	278	285	286	9
279	278	285	5917	9
279	278	277	281	9
279	280	275	283	9
283	275	280	284	9
282	279	280	284	9
264	266	287	288	9
267	266	287	288	9
286	285	5917	5907	9
286	285	5917	5919	9
11988	11989	11990	11997	9
11993	11989	11990	11997	9
11992	11991	11990	11997	9
11994	11991	11990	11997	9
910	911	918	11997	9
912	911	918	11997	9
11990	11989	11988	11999	9
11993	11989	11988	11999	9
11992	11987	11988	11999	9
11995	11987	11988	11999	9
11999	5275	5265	5264	9
11999	5275	5265	5268	9
911	918	11997	11990	9
920	918	11997	11990	9
11987	11988	11989	11990	9
11987	11992	11991	11990	9
11990	11991	11992	11996	9
11988	11999	5275	5265	9
11988	11999	5275	5277	9
11988	11989	11990	11991	9
11988	11987	11992	11991	9
11988	11987	11992	11996	9
11989	11990	11997	11998	9
918	11997	11990	11989	9
11989	11990	11991	11992	9
11989	11990	11991	11994	9
11989	11988	11999	12000	9
11989	11988	11999	5275	9
11989	11988	11987	11992	9
11989	11988	11987	11995	9
11991	11990	11997	11998	9
918	11997	11990	11991	9
11991	11990	11989	11993	9
11991	11992	11987	11995	9
11987	11988	11999	12000	9
11987	11988	11999	5275	9
11987	11988	11989	11993	9
11987	11992	11991	11994	9
11994	11991	11992	11996	9
11995	11987	11992	11996	9
911	918	11997	11998	9
920	918	11997	11998	9
12000	11999	5275	5265	9
12000	11999	5275	5277	9
4191	4190	4189	4200	9
4194	4190	4189	4200	9
4193	4188	4189	4200	9
4196	4188	4189	4200	9
4200	4208	4202	4203	9
4200	4208	4202	4205	9
4189	4190	4191	4198	9
4194	4190	4191	4198	9
4193	4192	4191	4198	9
4195	4192	4191	4198	9
4198	7957	7947	7946	9
4198	7957	7947	7950	9
4189	4200	4208	4202	9
4189	4200	4208	4209	9
4189	4190	4191	4192	9
4189	4188	4193	4192	9
4189	4188	4193	4197	9
4191	4198	7957	7947	9
4191	4198	7957	7959	9
4188	4189	4190	4191	9
4188	4193	4192	4191	9
4191	4192	4193	4197	9
4190	4189	4200	4201	9
4190	4189	4200	4208	9
4190	4189	4188	4193	9
4190	4189	4188	4196	9
4190	4191	4198	4199	9
4190	4191	4198	7957	9
4190	4191	4192	4193	9
4190	4191	4192	4195	9
4188	4189	4200	4201	9
4188	4189	4200	4208	9
4188	4189	4190	4194	9
4188	4193	4192	4195	9
4192	4191	4198	4199	9
4192	4191	4198	7957	9
4192	4191	4190	4194	9
4192	4193	4188	4196	9
4196	4188	4193	4197	9
4195	4192	4193	4197	9
4201	4200	4208	4202	9
4201	4200	4208	4209	9
4199	4198	7957	7947	9
4199	4198	7957	7959	9
3678	3677	3676	3687	9
3681	3677	3676	3687	9
3680	3675	3676	3687	9
3683	3675	3676	3687	9
3676	3677	3678	3685	9
3681	3677	3678	3685	9
3680	3679	3678	3685	9
3682	3679	3678	3685	9
3685	10989	10983	10986	9
3685	10989	10983	10984	9
3676	3677	3678	3679	9
3676	3675	3680	3679	9
3676	3675	3680	3684	9
3678	3685	10989	10983	9
3678	3685	10989	10990	9
3675	3676	3677	3678	9
3675	3680	3679	3678	9
3678	3679	3680	3684	9
3677	3676	3687	3689	9
3677	3676	3687	3688	9
3677	3676	3675	3680	9
3677	3676	3675	3683	9
3677	3678	3685	3686	9
3677	3678	3685	10989	9
3677	3678	3679	3680	9
3677	3678	3679	3682	9
3675	3676	3687	3689	9
3675	3676	3687	3688	9
3675	3676	3677	3681	9
3675	3680	3679	3682	9
3679	3678	3685	3686	9
3679	3678	3685	10989	9
3679	3678	3677	3681	9
3679	3680	3675	3683	9
3683	3675	3680	3684	9
3682	3679	3680	3684	9
3686	3685	10989	10983	9
3686	3685	10989	10990	9
11276	11275	11274	11285	9
11279	11275	11274	11285	9
11278	11273	11274	11285	9
11281	11273	11274	11285	9
11285	4040	4030	4033	9
11285	4040	4030	4029	9
11274	11275	11276	11283	9
11279	11275	11276	11283	9
11278	11277	11276	11283	9
11280	11277	11276	11283	9
11283	11142	11132	11131	9
11283	11142	11132	11135	9
11274	11285	4040	4030	9
11274	11285	4040	4042	9
11274	11275	11276	11277	9
11274	11273	11278	11277	9
11274	11273	11278	11282	9
11276	11283	11142	11132	9
11276	11283	11142	11144	9
11273	11274	11275	11276	9
11273	11278	11277	11276	9
11276	11277	11278	11282	9
11275	11274	11285	11286	9
11275	11274	11285	4040	9
11275	11274	11273	11278	9
11275	11274	11273	11281	9
11275	11276	11283	11284	9
11275	11276	11283	11142	9
11275	11276	11277	11278	9
11275	11276	11277	11280	9
11273	11274	11285	11286	9
11273	11274	11285	4040	9
11273	11274	11275	11279	9
11273	11278	11277	11280	9
11277	11276	11283	11284	9
11277	11276	11283	11142	9
11277	11276	11275	11279	9
11277	11278	11273	11281	9
11281	11273	11278	11282	9
11280	11277	11278	11282	9
11286	11285	4040	4030	9
11286	11285	4040	4042	9
11284	11283	11142	11132	9
11284	11283	11142	11144	9
2718	2717	2716	2727	9
2721	2717	2716	2727	9
2720	2715	2716	2727	9
2723	2715	2716	2727	9
2716	2717	2718	2725	9
2721	2717	2718	2725	9
2720	2719	2718	2725	9
2722	2719	2718	2725	9
2725	4983	4976	4977	9
2725	4983	4976	4975	9
2716	2717	2718	2719	9
2716	2715	2720	2719	9
2716	2715	2720	2724	9
2718	2725	4983	4976	9
2718	2725	4983	4985	9
2715	2716	2717	2718	9
2715	2720	2719	2718	9
2718	2719	2720	2724	9
2717	2716	2727	2729	9
2717	2716	2727	2728	9
2717	2716	2715	2720	9
2717	2716	2715	2723	9
2717	2718	2725	2726	9
2717	2718	2725	4983	9
2717	2718	2719	2720	9
2717	2718	2719	2722	9
2715	2716	2727	2729	9
2715	2716	2727	2728	9
2715	2716	2717	2721	9
2715	2720	2719	2722	9
2719	2718	2725	2726	9
2719	2718	2725	4983	9
2719	2718	2717	2721	9
2719	2720	2715	2723	9
2723	2715	2720	2724	9
2722	2719	2720	2724	9
2726	2725	4983	4976	9
2726	2725	4983	4985	9
10240	10239	10238	10249	9
10243	10239	10238	10249	9
10242	10237	10238	10249	9
10245	10237	10238	10249	9
10249	10257	10251	10254	9
10249	10257	10251	10252	9
10238	10239	10240	10247	9
10243	10239	10240	10247	9
10242	10241	10240	10247	9
10244	10241	10240	10247	9
10247	10799	10793	10794	9
10247	10799	10793	10796	9
10238	10249	10257	10251	9
10238	10249	10257	10258	9
10238	10239	10240	10241	9
10238	10237	10242	10241	9
10238	10237	10242	10246	9
10240	10247	10799	10793	9
10240	10247	10799	10800	9
10237	10238	10239	10240	9
10237	10242	10241	10240	9
10240	10241	10242	10246	9
10239	10238	10249	10250	9
10239	10238	10249	10257	9
10239	10238	10237	10242	9
10239	10238	10237	10245	9
10239	10240	10247	10248	9
10239	10240	10247	10799	9
10239	10240	10241	10242	9
10239	10240	10241	10244	9
10237	10238	10249	10250	9
10237	10238	10249	10257	9
10237	10238	10239	10243	9
10237	10242	10241	10244	9
10241	10240	10247	10248	9
10241	10240	10247	10799	9
10241	10240	10239	10243	9
10241	10242	10237	10245	9
10245	10237	10242	10246	9
10244	10241	10242	10246	9
10250	10249	10257	10251	9
10250	10249	10257	10258	9
10248	10247	10799	10793	9
10248	10247	10799	10800	9
12368	12367	12366	12377	9
12371	12367	12366	12377	9
12370	12365	12366	12377	9
12373	12365	12366	12377	9
12377	10059	10052	10051	9
12377	10059	10052	10053	9
12366	12367	12368	12375	9
12371	12367	12368	12375	9
12370	12369	12368	12375	9
12372	12369	12368	12375	9
12375	5873	5863	5862	9
12375	5873	5863	5866	9
12366	12377	10059	10052	9
12366	12377	10059	10061	9
12366	12367	12368	12369	9
12366	12365	12370	12369	9
12366	12365	12370	12374	9
12368	12375	5873	5863	9
12368	12375	5873	5875	9
12365	12366	12367	12368	9
12365	12370	12369	12368	9
12368	12369	12370	12374	9
12367	12366	12377	12378	9
12367	12366	12377	10059	9
12367	12366	12365	12370	9
12367	12366	12365	12373	9
12367	12368	12375	12376	9
12367	12368	12375	5873	9
12367	12368	12369	12370	9
12367	12368	12369	12372	9
12365	12366	12377	12378	9
12365	12366	12377	10059	9
12365	12366	12367	12371	9
12365	12370	12369	12372	9
12369	12368	12375	12376	9
12369	12368	12375	5873	9
12369	12368	12367	12371	9
12369	12370	12365	12373	9
12373	12365	12370	12374	9
12372	12369	12370	12374	9
12378	12377	10059	10052	9
12378	12377	10059	10061	9
12376	12375	5873	5863	9
12376	12375	5873	5875	9
11682	11681	11680	11691	9
11685	11681	11680	11691	9
11684	11679	11680	11691	9
11687	11679	11680	11691	9
1159	1158	1165	11691	9
1157	1158	1165	11691	9
11680	11681	11682	11689	9
11685	11681	11682	11689	9
11684	11683	11682	11689	9
11686	11683	11682	11689	9
11689	4736	4729	4730	9
11689	4736	4729	4728	9
1158	1165	11691	11680	9
1167	1165	11691	11680	9
11680	11681	11682	11683	9
11680	11679	11684	11683	9
11680	11679	11684	11688	9
11682	11689	4736	4729	9
11682	11689	4736	4738	9
11679	11680	11681	11682	9
11679	11684	11683	11682	9
11682	11683	11684	11688	9
11681	11680	11691	11692	9
1165	11691	11680	11681	9
11681	11680	11679	11684	9
11681	11680	11679	11687	9
11681	11682	11689	11690	9
11681	11682	11689	4736	9
11681	11682	11683	11684	9
11681	11682	11683	11686	9
11679	11680	11691	11692	9
1165	11691	11680	11679	9
11679	11680	11681	11685	9
11679	11684	11683	11686	9
11683	11682	11689	11690	9
11683	11682	11689	4736	9
11683	11682	11681	11685	9
11683	11684	11679	11687	9
11687	11679	11684	11688	9
11686	11683	11684	11688	9
1158	1165	11691	11692	9
1167	1165	11691	11692	9
11690	11689	4736	4729	9
11690	11689	4736	4738	9
5107	5106	5105	5116	9
5110	5106	5105	5116	9
5109	5104	5105	5116	9
5112	5104	5105	5116	9
5116	9315	9308	9307	9
5116	9315	9308	9309	9
5105	5106	5107	5114	9
5110	5106	5107	5114	9
5109	5108	5107	5114	9
5111	5108	5107	5114	9
5114	5124	5118	5119	9
5114	5124	5118	5121	9
5105	5116	9315	9308	9
5105	5116	9315	9317	9
5105	5106	5107	5108	9
5105	5104	5109	5108	9
5105	5104	5109	5113	9
5107	5114	5124	5118	9
5107	5114	5124	5125	9
5104	5105	5106	5107	9
5104	5109	5108	5107	9
5107	5108	5109	5113	9
5106	5105	5116	5117	9
5106	5105	5116	9315	9
5106	5105	5104	5109	9
5106	5105	5104	5112	9
5106	5107	5114	5115	9
5106	5107	5114	5124	9
5106	5107	5108	5109	9
5106	5107	5108	5111	9
5104	5105	5116	5117	9
5104	5105	5116	9315	9
5104	5105	5106	5110	9
5104	5109	5108	5111	9
5108	5107	5114	5115	9
5108	5107	5114	5124	9
5108	5107	5106	5110	9
5108	5109	5104	5112	9
5112	5104	5109	5113	9
5111	5108	5109	5113	9
5117	5116	9315	9308	9
5117	5116	9315	9317	9
5115	5114	5124	5118	9
5115	5114	5124	5125	9
10313	10312	10311	10322	9
10316	10312	10311	10322	9
10315	10310	10311	10322	9
10318	10310	10311	10322	9
10322	7768	7758	7757	9
10322	7768	7758	7761	9
10311	10312	10313	10320	9
10316	10312	10313	10320	9
10315	10314	10313	10320	9
10317	10314	10313	10320	9
10320	10330	10324	10325	9
10320	10330	10324	10327	9
10311	10322	7768	7758	9
10311	10322	7768	7770	9
10311	10312	10313	10314	9
10311	10310	10315	10314	9
10311	10310	10315	10319	9
10313	10320	10330	10324	9
10313	10320	10330	10331	9
10310	10311	10312	10313	9
10310	10315	10314	10313	9
10313	10314	10315	10319	9
10312	10311	10322	10323	9
10312	10311	10322	7768	9
10312	10311	10310	10315	9
10312	10311	10310	10318	9
10312	10313	10320	10321	9
10312	10313	10320	10330	9
10312	10313	10314	10315	9
10312	10313	10314	10317	9
10310	10311	10322	10323	9
10310	10311	10322	7768	9
10310	10311	10312	10316	9
10310	10315	10314	10317	9
10314	10313	10320	10321	9
10314	10313	10320	10330	9
10314	10313	10312	10316	9
10314	10315	10310	10318	9
10318	10310	10315	10319	9
10317	10314	10315	10319	9
10323	10322	7768	7758	9
10323	10322	7768	7770	9
10321	10320	10330	10324	9
10321	10320	10330	10331	9
7614	7613	7612	7623	9
7617	7613	7612	7623	9
7616	7611	7612	7623	9
7619	7611	7612	7623	9
7623	7631	7625	7628	9
7623	7631	7625	7626	9
7612	7613	7614	7621	9
7617	7613	7614	7621	9
7616	7615	7614	7621	9
7618	7615	7614	7621	9
7621	10974	10968	10971	9
7621	10974	10968	10969	9
7612	7623	7631	7625	9
7612	7623	7631	7632	9
7612	7613	7614	7615	9
7612	7611	7616	7615	9
7612	7611	7616	7620	9
7614	7621	10974	10968	9
7614	7621	10974	10975	9
7611	7612	7613	7614	9
7611	7616	7615	7614	9
7614	7615	7616	7620	9
7613	7612	7623	7624	9
7613	7612	7623	7631	9
7613	7612	7611	7616	9
7613	7612	7611	7619	9
7613	7614	7621	7622	9
7613	7614	7621	10974	9
7613	7614	7615	7616	9
7613	7614	7615	7618	9
7611	7612	7623	7624	9
7611	7612	7623	7631	9
7611	7612	7613	7617	9
7611	7616	7615	7618	9
7615	7614	7621	7622	9
7615	7614	7621	10974	9
7615	7614	7613	7617	9
7615	7616	7611	7619	9
7619	7611	7616	7620	9
7618	7615	7616	7620	9
7624	7623	7631	7625	9
7624	7623	7631	7632	9
7622	7621	10974	10968	9
7622	7621	10974	10975	9
11192	11191	11190	11201	9
11195	11191	11190	11201	9
11194	11189	11190	11201	9
11197	11189	11190	11201	9
898	897	899	11201	9
896	897	899	11201	9
11190	11191	11192	11199	9
11195	11191	11192	11199	9
11194	11193	11192	11199	9
11196	11193	11192	11199	9
11199	3851	3841	3840	9
11199	3851	3841	3844	9
897	899	11201	11190	9
900	899	11201	11190	9
11190	11191	11192	11193	9
11190	11189	11194	11193	9
11190	11189	11194	11198	9
11192	11199	3851	3841	9
11192	11199	3851	3853	9
11189	11190	11191	11192	9
11189	11194	11193	11192	9
11192	11193	11194	11198	9
11191	11190	11201	11202	9
899	11201	11190	11191	9
11191	11190	11189	11194	9
11191	11190	11189	11197	9
11191	11192	11199	11200	9
11191	11192	11199	3851	9
11191	11192	11193	11194	9
11191	11192	11193	11196	9
11189	11190	11201	11202	9
899	11201	11190	11189	9
11189	11190	11191	11195	9
11189	11194	11193	11196	9
11193	11192	11199	11200	9
11193	11192	11199	3851	9
11193	11192	11191	11195	9
11193	11194	11189	11197	9
11197	11189	11194	11198	9
11196	11193	11194	11198	9
897	899	11201	11202	9
900	899	11201	11202	9
11200	11199	3851	3841	9
11200	11199	3851	3853	9
9117	9118	9119	9126	9
9122	9118	9119	9126	9
9121	9120	9119	9126	9
9123	9120	9119	9126	9
9126	9476	9466	9469	9
9126	9476	9466	9465	9
9119	9118	9117	9128	9
9122	9118	9117	9128	9
9121	9116	9117	9128	9
9124	9116	9117	9128	9
9128	9136	9130	9133	9
9128	9136	9130	9131	9
9119	9126	9476	9466	9
9119	9126	9476	9478	9
9116	9117	9118	9119	9
9116	9121	9120	9119	9
9119	9120	9121	9125	9
9117	9128	9136	9130	9
9117	9128	9136	9137	9
9117	9118	9119	9120	9
9117	9116	9121	9120	9
9117	9116	9121	9125	9
9118	9119	9126	9127	9
9118	9119	9126	9476	9
9118	9119	9120	9121	9
9118	9119	9120	9123	9
9118	9117	9128	9129	9
9118	9117	9128	9136	9
9118	9117	9116	9121	9
9118	9117	9116	9124	9
9120	9119	9126	9127	9
9120	9119	9126	9476	9
9120	9119	9118	9122	9
9120	9121	9116	9124	9
9116	9117	9128	9129	9
9116	9117	9128	9136	9
9116	9117	9118	9122	9
9116	9121	9120	9123	9
9123	9120	9121	9125	9
9124	9116	9121	9125	9
9127	9126	9476	9466	9
9127	9126	9476	9478	9
9129	9128	9136	9130	9
9129	9128	9136	9137	9
554	555	556	563	9
559	555	556	563	9
558	557	556	563	9
560	557	556	563	9
537	536	542	563	9
539	536	542	563	9
556	555	554	565	9
559	555	554	565	9
558	553	554	565	9
561	553	554	565	9
565	5274	5267	5268	9
565	5274	5267	5266	9
536	542	563	556	9
543	542	563	556	9
556	555	554	553	9
556	557	558	553	9
556	557	558	562	9
554	565	5274	5267	9
554	565	5274	5276	9
557	556	555	554	9
557	558	553	554	9
554	553	558	562	9
555	556	563	564	9
542	563	556	555	9
555	556	557	558	9
555	556	557	560	9
555	554	565	566	9
555	554	565	5274	9
555	554	553	558	9
555	554	553	561	9
557	556	563	564	9
542	563	556	557	9
557	556	555	559	9
557	558	553	561	9
553	554	565	566	9
553	554	565	5274	9
553	554	555	559	9
553	558	557	560	9
560	557	558	562	9
561	553	558	562	9
536	542	563	564	9
543	542	563	564	9
566	565	5274	5267	9
566	565	5274	5276	9
2971	2972	2973	2980	9
2976	2972	2973	2980	9
2975	2974	2973	2980	9
2977	2974	2973	2980	9
2980	6675	6665	6668	9
2980	6675	6665	6664	9
2973	2972	2971	2982	9
2976	2972	2971	2982	9
2975	2970	2971	2982	9
2978	2970	2971	2982	9
2973	2980	6675	6665	9
2973	2980	6675	6677	9
2970	2971	2972	2973	9
2970	2975	2974	2973	9
2973	2974	2975	2979	9
2971	2972	2973	2974	9
2971	2970	2975	2974	9
2971	2970	2975	2979	9
2972	2973	2980	2981	9
2972	2973	2980	6675	9
2972	2973	2974	2975	9
2972	2973	2974	2977	9
2972	2971	2982	2983	9
2972	2971	2982	2984	9
2972	2971	2970	2975	9
2972	2971	2970	2978	9
2974	2973	2980	2981	9
2974	2973	2980	6675	9
2974	2973	2972	2976	9
2974	2975	2970	2978	9
2970	2971	2982	2983	9
2970	2971	2982	2984	9
2970	2971	2972	2976	9
2970	2975	2974	2977	9
2977	2974	2975	2979	9
2978	2970	2975	2979	9
2981	2980	6675	6665	9
2981	2980	6675	6677	9
9090	9089	9088	9099	9
9093	9089	9088	9099	9
9092	9087	9088	9099	9
9095	9087	9088	9099	9
9099	10438	10431	10430	9
9099	10438	10431	10432	9
9088	9089	9090	9097	9
9093	9089	9090	9097	9
9092	9091	9090	9097	9
9094	9091	9090	9097	9
9097	9107	9101	9102	9
9097	9107	9101	9104	9
9088	9099	10438	10431	9
9088	9099	10438	10440	9
9088	9089	9090	9091	9
9088	9087	9092	9091	9
9088	9087	9092	9096	9
9090	9097	9107	9101	9
9090	9097	9107	9108	9
9087	9088	9089	9090	9
9087	9092	9091	9090	9
9090	9091	9092	9096	9
9089	9088	9099	9100	9
9089	9088	9099	10438	9
9089	9088	9087	9092	9
9089	9088	9087	9095	9
9089	9090	9097	9098	9
9089	9090	9097	9107	9
9089	9090	9091	9092	9
9089	9090	9091	9094	9
9087	9088	9099	9100	9
9087	9088	9099	10438	9
9087	9088	9089	9093	9
9087	9092	9091	9094	9
9091	9090	9097	9098	9
9091	9090	9097	9107	9
9091	9090	9089	9093	9
9091	9092	9087	9095	9
9095	9087	9092	9096	9
9094	9091	9092	9096	9
9100	9099	10438	10431	9
9100	9099	10438	10440	9
9098	9097	9107	9101	9
9098	9097	9107	9108	9
13502	13501	13500	13511	9
13505	13501	13500	13511	9
13504	13499	13500	13511	9
13507	13499	13500	13511	9
13511	9113	9103	9102	9
13511	9113	9103	9106	9
13500	13501	13502	13509	9
13505	13501	13502	13509	9
13504	13503	13502	13509	9
13506	13503	13502	13509	9
13509	8980	8973	8972	9
13509	8980	8973	8974	9
13500	13511	9113	9103	9
13500	13511	9113	9115	9
13500	13501	13502	13503	9
13500	13499	13504	13503	9
13500	13499	13504	13508	9
13502	13509	8980	8973	9
13502	13509	8980	8982	9
13499	13500	13501	13502	9
13499	13504	13503	13502	9
13502	13503	13504	13508	9
13501	13500	13511	13512	9
13501	13500	13511	9113	9
13501	13500	13499	13504	9
13501	13500	13499	13507	9
13501	13502	13509	13510	9
13501	13502	13509	8980	9
13501	13502	13503	13504	9
13501	13502	13503	13506	9
13499	13500	13511	13512	9
13499	13500	13511	9113	9
13499	13500	13501	13505	9
13499	13504	13503	13506	9
13503	13502	13509	13510	9
13503	13502	13509	8980	9
13503	13502	13501	13505	9
13503	13504	13499	13507	9
13507	13499	13504	13508	9
13506	13503	13504	13508	9
13512	13511	9113	9103	9
13512	13511	9113	9115	9
13510	13509	8980	8973	9
13510	13509	8980	8982	9
3406	3407	3408	3415	9
3411	3407	3408	3415	9
3410	3409	3408	3415	9
3412	3409	3408	3415	9
3415	9447	9437	9440	9
3415	9447	9437	9436	9
3408	3407	3406	3417	9
3411	3407	3406	3417	9
3410	3405	3406	3417	9
3413	3405	3406	3417	9
3408	3415	9447	9437	9
3408	3415	9447	9449	9
3405	3406	3407	3408	9
3405	3410	3409	3408	9
3408	3409	3410	3414	9
3406	3407	3408	3409	9
3406	3405	3410	3409	9
3406	3405	3410	3414	9
3407	3408	3415	3416	9
3407	3408	3415	9447	9
3407	3408	3409	3410	9
3407	3408	3409	3412	9
3407	3406	3417	3418	9
3407	3406	3417	3419	9
3407	3406	3405	3410	9
3407	3406	3405	3413	9
3409	3408	3415	3416	9
3409	3408	3415	9447	9
3409	3408	3407	3411	9
3409	3410	3405	3413	9
3405	3406	3417	3418	9
3405	3406	3417	3419	9
3405	3406	3407	3411	9
3405	3410	3409	3412	9
3412	3409	3410	3414	9
3413	3405	3410	3414	9
3416	3415	9447	9437	9
3416	3415	9447	9449	9
7963	7962	7961	7972	9
7966	7962	7961	7972	9
7965	7960	7961	7972	9
7968	7960	7961	7972	9
7972	6951	6944	6945	9
7972	6951	6944	6943	9
7961	7962	7963	7970	9
7966	7962	7963	7970	9
7965	7964	7963	7970	9
7967	7964	7963	7970	9
7970	7980	7974	7975	9
7970	7980	7974	7977	9
7961	7972	6951	6944	9
7961	7972	6951	6953	9
7961	7962	7963	7964	9
7961	7960	7965	7964	9
7961	7960	7965	7969	9
7963	7970	7980	7974	9
7963	7970	7980	7981	9
7960	7961	7962	7963	9
7960	7965	7964	7963	9
7963	7964	7965	7969	9
7962	7961	7972	7973	9
7962	7961	7972	6951	9
7962	7961	7960	7965	9
7962	7961	7960	7968	9
7962	7963	7970	7971	9
7962	7963	7970	7980	9
7962	7963	7964	7965	9
7962	7963	7964	7967	9
7960	7961	7972	7973	9
7960	7961	7972	6951	9
7960	7961	7962	7966	9
7960	7965	7964	7967	9
7964	7963	7970	7971	9
7964	7963	7970	7980	9
7964	7963	7962	7966	9
7964	7965	7960	7968	9
7968	7960	7965	7969	9
7967	7964	7965	7969	9
7973	7972	6951	6944	9
7973	7972	6951	6953	9
7971	7970	7980	7974	9
7971	7970	7980	7981	9
1065	1064	1063	1074	9
1068	1064	1063	1074	9
1067	1062	1063	1074	9
1070	1062	1063	1074	9
1079	1078	1076	1074	9
1083	1078	1076	1074	9
1063	1064	1065	1072	9
1068	1064	1065	1072	9
1067	1066	1065	1072	9
1069	1066	1065	1072	9
1072	5566	5556	5559	9
1072	5566	5556	5555	9
1078	1076	1074	1063	9
1077	1076	1074	1063	9
1063	1064	1065	1066	9
1063	1062	1067	1066	9
1063	1062	1067	1071	9
1065	1072	5566	5556	9
1065	1072	5566	5568	9
1062	1063	1064	1065	9
1062	1067	1066	1065	9
1065	1066	1067	1071	9
1064	1063	1074	1075	9
1076	1074	1063	1064	9
1064	1063	1062	1067	9
1064	1063	1062	1070	9
1064	1065	1072	1073	9
1064	1065	1072	5566	9
1064	1065	1066	1067	9
1064	1065	1066	1069	9
1062	1063	1074	1075	9
1076	1074	1063	1062	9
1062	1063	1064	1068	9
1062	1067	1066	1069	9
1066	1065	1072	1073	9
1066	1065	1072	5566	9
1066	1065	1064	1068	9
1066	1067	1062	1070	9
1070	1062	1067	1071	9
1069	1066	1067	1071	9
1078	1076	1074	1075	9
1077	1076	1074	1075	9
1073	1072	5566	5556	9
1073	1072	5566	5568	9
13488	13487	13486	13497	9
13491	13487	13486	13497	9
13490	13485	13486	13497	9
13493	13485	13486	13497	9
13497	10936	10926	10925	9
13497	10936	10926	10929	9
13486	13487	13488	13495	9
13491	13487	13488	13495	9
13490	13489	13488	13495	9
13492	13489	13488	13495	9
13495	8981	8971	8974	9
13495	8981	8971	8970	9
13486	13497	10936	10926	9
13486	13497	10936	10938	9
13486	13487	13488	13489	9
13486	13485	13490	13489	9
13486	13485	13490	13494	9
13488	13495	8981	8971	9
13488	13495	8981	8983	9
13485	13486	13487	13488	9
13485	13490	13489	13488	9
13488	13489	13490	13494	9
13487	13486	13497	13498	9
13487	13486	13497	10936	9
13487	13486	13485	13490	9
13487	13486	13485	13493	9
13487	13488	13495	13496	9
13487	13488	13495	8981	9
13487	13488	13489	13490	9
13487	13488	13489	13492	9
13485	13486	13497	13498	9
13485	13486	13497	10936	9
13485	13486	13487	13491	9
13485	13490	13489	13492	9
13489	13488	13495	13496	9
13489	13488	13495	8981	9
13489	13488	13487	13491	9
13489	13490	13485	13493	9
13493	13485	13490	13494	9
13492	13489	13490	13494	9
13498	13497	10936	10926	9
13498	13497	10936	10938	9
13496	13495	8981	8971	9
13496	13495	8981	8983	9
10679	10678	10677	10688	9
10682	10678	10677	10688	9
10681	10676	10677	10688	9
10684	10676	10677	10688	9
10688	3952	3945	3944	9
10688	3952	3945	3946	9
10677	10678	10679	10686	9
10682	10678	10679	10686	9
10681	10680	10679	10686	9
10683	10680	10679	10686	9
10686	10696	10690	10691	9
10686	10696	10690	10693	9
10677	10688	3952	3945	9
10677	10688	3952	3954	9
10677	10678	10679	10680	9
10677	10676	10681	10680	9
10677	10676	10681	10685	9
10679	10686	10696	10690	9
10679	10686	10696	10697	9
10676	10677	10678	10679	9
10676	10681	10680	10679	9
10679	10680	10681	10685	9
10678	10677	10688	10689	9
10678	10677	10688	3952	9
10678	10677	10676	10681	9
10678	10677	10676	10684	9
10678	10679	10686	10687	9
10678	10679	10686	10696	9
10678	10679	10680	10681	9
10678	10679	10680	10683	9
10676	10677	10688	10689	9
10676	10677	10688	3952	9
10676	10677	10678	10682	9
10676	10681	10680	10683	9
10680	10679	10686	10687	9
10680	10679	10686	10696	9
10680	10679	10678	10682	9
10680	10681	10676	10684	9
10684	10676	10681	10685	9
10683	10680	10681	10685	9
10689	10688	3952	3945	9
10689	10688	3952	3954	9
10687	10686	10696	10690	9
10687	10686	10696	10697	9
5602	5601	5600	5611	9
5605	5601	5600	5611	9
5604	5599	5600	5611	9
5607	5599	5600	5611	9
2443	2442	2449	5611	9
2441	2442	2449	5611	9
5600	5601	5602	5609	9
5605	5601	5602	5609	9
5604	5603	5602	5609	9
5606	5603	5602	5609	9
5609	5619	5613	5616	9
5609	5619	5613	5614	9
2442	2449	5611	5600	9
2451	2449	5611	5600	9
5600	5601	5602	5603	9
5600	5599	5604	5603	9
5600	5599	5604	5608	9
5602	5609	5619	5613	9
5602	5609	5619	5620	9
5599	5600	5601	5602	9
5599	5604	5603	5602	9
5602	5603	5604	5608	9
5601	5600	5611	5612	9
2449	5611	5600	5601	9
5601	5600	5599	5604	9
5601	5600	5599	5607	9
5601	5602	5609	5610	9
5601	5602	5609	5619	9
5601	5602	5603	5604	9
5601	5602	5603	5606	9
5599	5600	5611	5612	9
2449	5611	5600	5599	9
5599	5600	5601	5605	9
5599	5604	5603	5606	9
5603	5602	5609	5610	9
5603	5602	5609	5619	9
5603	5602	5601	5605	9
5603	5604	5599	5607	9
5607	5599	5604	5608	9
5606	5603	5604	5608	9
2442	2449	5611	5612	9
2451	2449	5611	5612	9
5610	5609	5619	5613	9
5610	5609	5619	5620	9
433	432	431	442	9
436	432	431	442	9
435	430	431	442	9
438	430	431	442	9
442	6335	6329	6330	9
442	6335	6329	6332	9
431	432	433	440	9
436	432	433	440	9
435	434	433	440	9
437	434	433	440	9
414	413	419	440	9
416	413	419	440	9
431	442	6335	6329	9
431	442	6335	6336	9
431	432	433	434	9
431	430	435	434	9
431	430	435	439	9
413	419	440	433	9
420	419	440	433	9
430	431	432	433	9
430	435	434	433	9
433	434	435	439	9
432	431	442	443	9
432	431	442	6335	9
432	431	430	435	9
432	431	430	438	9
432	433	440	441	9
419	440	433	432	9
432	433	434	435	9
432	433	434	437	9
430	431	442	443	9
430	431	442	6335	9
430	431	432	436	9
430	435	434	437	9
434	433	440	441	9
419	440	433	434	9
434	433	432	436	9
434	435	430	438	9
438	430	435	439	9
437	434	435	439	9
443	442	6335	6329	9
443	442	6335	6336	9
413	419	440	441	9
420	419	440	441	9
7133	7132	7131	7142	9
7136	7132	7131	7142	9
7135	7130	7131	7142	9
7138	7130	7131	7142	9
7142	7150	7144	7147	9
7142	7150	7144	7145	9
7131	7132	7133	7140	9
7136	7132	7133	7140	9
7135	7134	7133	7140	9
7137	7134	7133	7140	9
7140	8600	8593	8594	9
7140	8600	8593	8592	9
7131	7142	7150	7144	9
7131	7142	7150	7151	9
7131	7132	7133	7134	9
7131	7130	7135	7134	9
7131	7130	7135	7139	9
7133	7140	8600	8593	9
7133	7140	8600	8602	9
7130	7131	7132	7133	9
7130	7135	7134	7133	9
7133	7134	7135	7139	9
7132	7131	7142	7143	9
7132	7131	7142	7150	9
7132	7131	7130	7135	9
7132	7131	7130	7138	9
7132	7133	7140	7141	9
7132	7133	7140	8600	9
7132	7133	7134	7135	9
7132	7133	7134	7137	9
7130	7131	7142	7143	9
7130	7131	7142	7150	9
7130	7131	7132	7136	9
7130	7135	7134	7137	9
7134	7133	7140	7141	9
7134	7133	7140	8600	9
7134	7133	7132	7136	9
7134	7135	7130	7138	9
7138	7130	7135	7139	9
7137	7134	7135	7139	9
7143	7142	7150	7144	9
7143	7142	7150	7151	9
7141	7140	8600	8593	9
7141	7140	8600	8602	9
680	679	678	689	9
683	679	678	689	9
682	677	678	689	9
685	677	678	689	9
689	10536	10530	10531	9
689	10536	10530	10533	9
678	679	680	687	9
683	679	680	687	9
682	681	680	687	9
684	681	680	687	9
661	660	666	687	9
663	660	666	687	9
678	689	10536	10530	9
678	689	10536	10537	9
678	679	680	681	9
678	677	682	681	9
678	677	682	686	9
660	666	687	680	9
667	666	687	680	9
677	678	679	680	9
677	682	681	680	9
680	681	682	686	9
679	678	689	690	9
679	678	689	10536	9
679	678	677	682	9
679	678	677	685	9
679	680	687	688	9
666	687	680	679	9
679	680	681	682	9
679	680	681	684	9
677	678	689	690	9
677	678	689	10536	9
677	678	679	683	9
677	682	681	684	9
681	680	687	688	9
666	687	680	681	9
681	680	679	683	9
681	682	677	685	9
685	677	682	686	9
684	681	682	686	9
690	689	10536	10530	9
690	689	10536	10537	9
660	666	687	688	9
667	666	687	688	9
6681	6680	6679	6690	9
6684	6680	6679	6690	9
6683	6678	6679	6690	9
6686	6678	6679	6690	9
6690	8351	8344	8345	9
6690	8351	8344	8343	9
6679	6680	6681	6688	9
6684	6680	6681	6688	9
6683	6682	6681	6688	9
6685	6682	6681	6688	9
6688	6698	6692	6693	9
6688	6698	6692	6695	9
6679	6690	8351	8344	9
6679	6690	8351	8353	9
6679	6680	6681	6682	9
6679	6678	6683	6682	9
6679	6678	6683	6687	9
6681	6688	6698	6692	9
6681	6688	6698	6699	9
6678	6679	6680	6681	9
6678	6683	6682	6681	9
6681	6682	6683	6687	9
6680	6679	6690	6691	9
6680	6679	6690	8351	9
6680	6679	6678	6683	9
6680	6679	6678	6686	9
6680	6681	6688	6689	9
6680	6681	6688	6698	9
6680	6681	6682	6683	9
6680	6681	6682	6685	9
6678	6679	6690	6691	9
6678	6679	6690	8351	9
6678	6679	6680	6684	9
6678	6683	6682	6685	9
6682	6681	6688	6689	9
6682	6681	6688	6698	9
6682	6681	6680	6684	9
6682	6683	6678	6686	9
6686	6678	6683	6687	9
6685	6682	6683	6687	9
6691	6690	8351	8344	9
6691	6690	8351	8353	9
6689	6688	6698	6692	9
6689	6688	6698	6699	9
3466	3467	3468	3475	9
3471	3467	3468	3475	9
3470	3469	3468	3475	9
3472	3469	3468	3475	9
3475	9592	9585	9586	9
3475	9592	9585	9584	9
3468	3467	3466	3477	9
3471	3467	3466	3477	9
3470	3465	3466	3477	9
3473	3465	3466	3477	9
3468	3475	9592	9585	9
3468	3475	9592	9594	9
3465	3466	3467	3468	9
3465	3470	3469	3468	9
3468	3469	3470	3474	9
3466	3467	3468	3469	9
3466	3465	3470	3469	9
3466	3465	3470	3474	9
3467	3468	3475	3476	9
3467	3468	3475	9592	9
3467	3468	3469	3470	9
3467	3468	3469	3472	9
3467	3466	3477	3479	9
3467	3466	3477	3478	9
3467	3466	3465	3470	9
3467	3466	3465	3473	9
3469	3468	3475	3476	9
3469	3468	3475	9592	9
3469	3468	3467	3471	9
3469	3470	3465	3473	9
3465	3466	3477	3479	9
3465	3466	3477	3478	9
3465	3466	3467	3471	9
3465	3470	3469	3472	9
3472	3469	3470	3474	9
3473	3465	3470	3474	9
3476	3475	9592	9585	9
3476	3475	9592	9594	9
13040	13039	13038	13049	9
13043	13039	13038	13049	9
13042	13037	13038	13049	9
13045	13037	13038	13049	9
13049	7608	7598	7601	9
13049	7608	7598	7597	9
13038	13039	13040	13047	9
13043	13039	13040	13047	9
13042	13041	13040	13047	9
13044	13041	13040	13047	9
13047	10262	10255	10254	9
13047	10262	10255	10256	9
13038	13049	7608	7598	9
13038	13049	7608	7610	9
13038	13039	13040	13041	9
13038	13037	13042	13041	9
13038	13037	13042	13046	9
13040	13047	10262	10255	9
13040	13047	10262	10264	9
13037	13038	13039	13040	9
13037	13042	13041	13040	9
13040	13041	13042	13046	9
13039	13038	13049	13050	9
13039	13038	13049	7608	9
13039	13038	13037	13042	9
13039	13038	13037	13045	9
13039	13040	13047	13048	9
13039	13040	13047	10262	9
13039	13040	13041	13042	9
13039	13040	13041	13044	9
13037	13038	13049	13050	9
13037	13038	13049	7608	9
13037	13038	13039	13043	9
13037	13042	13041	13044	9
13041	13040	13047	13048	9
13041	13040	13047	10262	9
13041	13040	13039	13043	9
13041	13042	13037	13045	9
13045	13037	13042	13046	9
13044	13041	13042	13046	9
13050	13049	7608	7598	9
13050	13049	7608	7610	9
13048	13047	10262	10255	9
13048	13047	10262	10264	9
11402	11401	11400	11411	9
11405	11401	11400	11411	9
11404	11399	11400	11411	9
11407	11399	11400	11411	9
11411	7506	7496	7495	9
11411	7506	7496	7499	9
11400	11401	11402	11409	9
11405	11401	11402	11409	9
11404	11403	11402	11409	9
11406	11403	11402	11409	9
11409	4214	4204	4203	9
11409	4214	4204	4207	9
11400	11411	7506	7496	9
11400	11411	7506	7508	9
11400	11401	11402	11403	9
11400	11399	11404	11403	9
11400	11399	11404	11408	9
11402	11409	4214	4204	9
11402	11409	4214	4216	9
11399	11400	11401	11402	9
11399	11404	11403	11402	9
11402	11403	11404	11408	9
11401	11400	11411	11412	9
11401	11400	11411	7506	9
11401	11400	11399	11404	9
11401	11400	11399	11407	9
11401	11402	11409	11410	9
11401	11402	11409	4214	9
11401	11402	11403	11404	9
11401	11402	11403	11406	9
11399	11400	11411	11412	9
11399	11400	11411	7506	9
11399	11400	11401	11405	9
11399	11404	11403	11406	9
11403	11402	11409	11410	9
11403	11402	11409	4214	9
11403	11402	11401	11405	9
11403	11404	11399	11407	9
11407	11399	11404	11408	9
11406	11403	11404	11408	9
11412	11411	7506	7496	9
11412	11411	7506	7508	9
11410	11409	4214	4204	9
11410	11409	4214	4216	9
12746	12745	12744	12755	9
12749	12745	12744	12755	9
12748	12743	12744	12755	9
12751	12743	12744	12755	9
2536	2535	2542	12755	9
2534	2535	2542	12755	9
12744	12745	12746	12753	9
12749	12745	12746	12753	9
12748	12747	12746	12753	9
12750	12747	12746	12753	9
12753	6703	6696	6697	9
12753	6703	6696	6695	9
2535	2542	12755	12744	9
2544	2542	12755	12744	9
12744	12745	12746	12747	9
12744	12743	12748	12747	9
12744	12743	12748	12752	9
12746	12753	6703	6696	9
12746	12753	6703	6705	9
12743	12744	12745	12746	9
12743	12748	12747	12746	9
12746	12747	12748	12752	9
12745	12744	12755	12756	9
2542	12755	12744	12745	9
12745	12744	12743	12748	9
12745	12744	12743	12751	9
12745	12746	12753	12754	9
12745	12746	12753	6703	9
12745	12746	12747	12748	9
12745	12746	12747	12750	9
12743	12744	12755	12756	9
2542	12755	12744	12743	9
12743	12744	12745	12749	9
12743	12748	12747	12750	9
12747	12746	12753	12754	9
12747	12746	12753	6703	9
12747	12746	12745	12749	9
12747	12748	12743	12751	9
12751	12743	12748	12752	9
12750	12747	12748	12752	9
2535	2542	12755	12756	9
2544	2542	12755	12756	9
12754	12753	6703	6696	9
12754	12753	6703	6705	9
4017	4016	4015	4026	9
4020	4016	4015	4026	9
4019	4014	4015	4026	9
4022	4014	4015	4026	9
4026	6266	6259	6258	9
4026	6266	6259	6260	9
4015	4016	4017	4024	9
4020	4016	4017	4024	9
4019	4018	4017	4024	9
4021	4018	4017	4024	9
4024	4034	4028	4031	9
4024	4034	4028	4029	9
4015	4026	6266	6259	9
4015	4026	6266	6268	9
4015	4016	4017	4018	9
4015	4014	4019	4018	9
4015	4014	4019	4023	9
4017	4024	4034	4028	9
4017	4024	4034	4035	9
4014	4015	4016	4017	9
4014	4019	4018	4017	9
4017	4018	4019	4023	9
4016	4015	4026	4027	9
4016	4015	4026	6266	9
4016	4015	4014	4019	9
4016	4015	4014	4022	9
4016	4017	4024	4025	9
4016	4017	4024	4034	9
4016	4017	4018	4019	9
4016	4017	4018	4021	9
4014	4015	4026	4027	9
4014	4015	4026	6266	9
4014	4015	4016	4020	9
4014	4019	4018	4021	9
4018	4017	4024	4025	9
4018	4017	4024	4034	9
4018	4017	4016	4020	9
4018	4019	4014	4022	9
4022	4014	4019	4023	9
4021	4018	4019	4023	9
4027	4026	6266	6259	9
4027	4026	6266	6268	9
4025	4024	4034	4028	9
4025	4024	4034	4035	9
2287	2286	2285	2296	9
2290	2286	2285	2296	9
2289	2284	2285	2296	9
2292	2284	2285	2296	9
2301	2300	2298	2296	9
2305	2300	2298	2296	9
2285	2286	2287	2294	9
2290	2286	2287	2294	9
2289	2288	2287	2294	9
2291	2288	2287	2294	9
2294	10790	10780	10783	9
2294	10790	10780	10779	9
2300	2298	2296	2285	9
2299	2298	2296	2285	9
2285	2286	2287	2288	9
2285	2284	2289	2288	9
2285	2284	2289	2293	9
2287	2294	10790	10780	9
2287	2294	10790	10792	9
2284	2285	2286	2287	9
2284	2289	2288	2287	9
2287	2288	2289	2293	9
2286	2285	2296	2297	9
2298	2296	2285	2286	9
2286	2285	2284	2289	9
2286	2285	2284	2292	9
2286	2287	2294	2295	9
2286	2287	2294	10790	9
2286	2287	2288	2289	9
2286	2287	2288	2291	9
2284	2285	2296	2297	9
2298	2296	2285	2284	9
2284	2285	2286	2290	9
2284	2289	2288	2291	9
2288	2287	2294	2295	9
2288	2287	2294	10790	9
2288	2287	2286	2290	9
2288	2289	2284	2292	9
2292	2284	2289	2293	9
2291	2288	2289	2293	9
2300	2298	2296	2297	9
2299	2298	2296	2297	9
2295	2294	10790	10780	9
2295	2294	10790	10792	9
6623	6622	6621	6632	9
6626	6622	6621	6632	9
6625	6620	6621	6632	9
6628	6620	6621	6632	9
6632	6640	6634	6635	9
6632	6640	6634	6637	9
6621	6622	6623	6630	9
6626	6622	6623	6630	9
6625	6624	6623	6630	9
6627	6624	6623	6630	9
6630	8936	8929	8928	9
6630	8936	8929	8930	9
6621	6632	6640	6634	9
6621	6632	6640	6641	9
6621	6622	6623	6624	9
6621	6620	6625	6624	9
6621	6620	6625	6629	9
6623	6630	8936	8929	9
6623	6630	8936	8938	9
6620	6621	6622	6623	9
6620	6625	6624	6623	9
6623	6624	6625	6629	9
6622	6621	6632	6633	9
6622	6621	6632	6640	9
6622	6621	6620	6625	9
6622	6621	6620	6628	9
6622	6623	6630	6631	9
6622	6623	6630	8936	9
6622	6623	6624	6625	9
6622	6623	6624	6627	9
6620	6621	6632	6633	9
6620	6621	6632	6640	9
6620	6621	6622	6626	9
6620	6625	6624	6627	9
6624	6623	6630	6631	9
6624	6623	6630	8936	9
6624	6623	6622	6626	9
6624	6625	6620	6628	9
6628	6620	6625	6629	9
6627	6624	6625	6629	9
6633	6632	6640	6634	9
6633	6632	6640	6641	9
6631	6630	8936	8929	9
6631	6630	8936	8938	9
7541	7540	7539	7550	9
7544	7540	7539	7550	9
7543	7538	7539	7550	9
7546	7538	7539	7550	9
7550	7558	7552	7555	9
7550	7558	7552	7553	9
7539	7540	7541	7548	9
7544	7540	7541	7548	9
7543	7542	7541	7548	9
7545	7542	7541	7548	9
7548	4621	4611	4610	9
7548	4621	4611	4614	9
7539	7550	7558	7552	9
7539	7550	7558	7559	9
7539	7540	7541	7542	9
7539	7538	7543	7542	9
7539	7538	7543	7547	9
7541	7548	4621	4611	9
7541	7548	4621	4623	9
7538	7539	7540	7541	9
7538	7543	7542	7541	9
7541	7542	7543	7547	9
7540	7539	7550	7551	9
7540	7539	7550	7558	9
7540	7539	7538	7543	9
7540	7539	7538	7546	9
7540	7541	7548	7549	9
7540	7541	7548	4621	9
7540	7541	7542	7543	9
7540	7541	7542	7545	9
7538	7539	7550	7551	9
7538	7539	7550	7558	9
7538	7539	7540	7544	9
7538	7543	7542	7545	9
7542	7541	7548	7549	9
7542	7541	7548	4621	9
7542	7541	7540	7544	9
7542	7543	7538	7546	9
7546	7538	7543	7547	9
7545	7542	7543	7547	9
7551	7550	7558	7552	9
7551	7550	7558	7559	9
7549	7548	4621	4611	9
7549	7548	4621	4623	9
12802	12801	12800	12811	9
12805	12801	12800	12811	9
12804	12799	12800	12811	9
12807	12799	12800	12811	9
12811	6952	6942	6941	9
12811	6952	6942	6945	9
12800	12801	12802	12809	9
12805	12801	12802	12809	9
12804	12803	12802	12809	9
12806	12803	12802	12809	9
2503	2504	2511	12809	9
2505	2504	2511	12809	9
12800	12811	6952	6942	9
12800	12811	6952	6954	9
12800	12801	12802	12803	9
12800	12799	12804	12803	9
12800	12799	12804	12808	9
2504	2511	12809	12802	9
2513	2511	12809	12802	9
12799	12800	12801	12802	9
12799	12804	12803	12802	9
12802	12803	12804	12808	9
12801	12800	12811	12812	9
12801	12800	12811	6952	9
12801	12800	12799	12804	9
12801	12800	12799	12807	9
12801	12802	12809	12810	9
2511	12809	12802	12801	9
12801	12802	12803	12804	9
12801	12802	12803	12806	9
12799	12800	12811	12812	9
12799	12800	12811	6952	9
12799	12800	12801	12805	9
12799	12804	12803	12806	9
12803	12802	12809	12810	9
2511	12809	12802	12803	9
12803	12802	12801	12805	9
12803	12804	12799	12807	9
12807	12799	12804	12808	9
12806	12803	12804	12808	9
12812	12811	6952	6942	9
12812	12811	6952	6954	9
2504	2511	12809	12810	9
2513	2511	12809	12810	9
13012	13011	13010	13021	9
13015	13011	13010	13021	9
13014	13009	13010	13021	9
13017	13009	13010	13021	9
13021	9316	9306	9309	9
13021	9316	9306	9305	9
13010	13011	13012	13019	9
13015	13011	13012	13019	9
13014	13013	13012	13019	9
13016	13013	13012	13019	9
13019	7535	7525	7528	9
13019	7535	7525	7524	9
13010	13021	9316	9306	9
13010	13021	9316	9318	9
13010	13011	13012	13013	9
13010	13009	13014	13013	9
13010	13009	13014	13018	9
13012	13019	7535	7525	9
13012	13019	7535	7537	9
13009	13010	13011	13012	9
13009	13014	13013	13012	9
13012	13013	13014	13018	9
13011	13010	13021	13022	9
13011	13010	13021	9316	9
13011	13010	13009	13014	9
13011	13010	13009	13017	9
13011	13012	13019	13020	9
13011	13012	13019	7535	9
13011	13012	13013	13014	9
13011	13012	13013	13016	9
13009	13010	13021	13022	9
13009	13010	13021	9316	9
13009	13010	13011	13015	9
13009	13014	13013	13016	9
13013	13012	13019	13020	9
13013	13012	13019	7535	9
13013	13012	13011	13015	9
13013	13014	13009	13017	9
13017	13009	13014	13018	9
13016	13013	13014	13018	9
13022	13021	9316	9306	9
13022	13021	9316	9318	9
13020	13019	7535	7525	9
13020	13019	7535	7537	9
4424	4423	4422	4433	9
4427	4423	4422	4433	9
4426	4421	4422	4433	9
4429	4421	4422	4433	9
4433	4441	4435	4436	9
4433	4441	4435	4438	9
4422	4423	4424	4431	9
4427	4423	4424	4431	9
4426	4425	4424	4431	9
4428	4425	4424	4431	9
4431	6922	6915	6916	9
4431	6922	6915	6914	9
4422	4433	4441	4435	9
4422	4433	4441	4442	9
4422	4423	4424	4425	9
4422	4421	4426	4425	9
4422	4421	4426	4430	9
4424	4431	6922	6915	9
4424	4431	6922	6924	9
4421	4422	4423	4424	9
4421	4426	4425	4424	9
4424	4425	4426	4430	9
4423	4422	4433	4434	9
4423	4422	4433	4441	9
4423	4422	4421	4426	9
4423	4422	4421	4429	9
4423	4424	4431	4432	9
4423	4424	4431	6922	9
4423	4424	4425	4426	9
4423	4424	4425	4428	9
4421	4422	4433	4434	9
4421	4422	4433	4441	9
4421	4422	4423	4427	9
4421	4426	4425	4428	9
4425	4424	4431	4432	9
4425	4424	4431	6922	9
4425	4424	4423	4427	9
4425	4426	4421	4429	9
4429	4421	4426	4430	9
4428	4425	4426	4430	9
4434	4433	4441	4435	9
4434	4433	4441	4442	9
4432	4431	6922	6915	9
4432	4431	6922	6924	9
10767	10766	10765	10776	9
10770	10766	10765	10776	9
10769	10764	10765	10776	9
10772	10764	10765	10776	9
10776	10784	10778	10781	9
10776	10784	10778	10779	9
10765	10766	10767	10774	9
10770	10766	10767	10774	9
10769	10768	10767	10774	9
10771	10768	10767	10774	9
10774	5931	5924	5923	9
10774	5931	5924	5925	9
10765	10776	10784	10778	9
10765	10776	10784	10785	9
10765	10766	10767	10768	9
10765	10764	10769	10768	9
10765	10764	10769	10773	9
10767	10774	5931	5924	9
10767	10774	5931	5933	9
10764	10765	10766	10767	9
10764	10769	10768	10767	9
10767	10768	10769	10773	9
10766	10765	10776	10777	9
10766	10765	10776	10784	9
10766	10765	10764	10769	9
10766	10765	10764	10772	9
10766	10767	10774	10775	9
10766	10767	10774	5931	9
10766	10767	10768	10769	9
10766	10767	10768	10771	9
10764	10765	10776	10777	9
10764	10765	10776	10784	9
10764	10765	10766	10770	9
10764	10769	10768	10771	9
10768	10767	10774	10775	9
10768	10767	10774	5931	9
10768	10767	10766	10770	9
10768	10769	10764	10772	9
10772	10764	10769	10773	9
10771	10768	10769	10773	9
10777	10776	10784	10778	9
10777	10776	10784	10785	9
10775	10774	5931	5924	9
10775	10774	5931	5933	9
3693	3692	3691	3702	9
3696	3692	3691	3702	9
3695	3690	3691	3702	9
3698	3690	3691	3702	9
3691	3692	3693	3700	9
3696	3692	3693	3700	9
3695	3694	3693	3700	9
3697	3694	3693	3700	9
3700	10994	10987	10986	9
3700	10994	10987	10988	9
3691	3692	3693	3694	9
3691	3690	3695	3694	9
3691	3690	3695	3699	9
3693	3700	10994	10987	9
3693	3700	10994	10996	9
3690	3691	3692	3693	9
3690	3695	3694	3693	9
3693	3694	3695	3699	9
3692	3691	3702	3703	9
3692	3691	3702	3704	9
3692	3691	3690	3695	9
3692	3691	3690	3698	9
3692	3693	3700	3701	9
3692	3693	3700	10994	9
3692	3693	3694	3695	9
3692	3693	3694	3697	9
3690	3691	3702	3703	9
3690	3691	3702	3704	9
3690	3691	3692	3696	9
3690	3695	3694	3697	9
3694	3693	3700	3701	9
3694	3693	3700	10994	9
3694	3693	3692	3696	9
3694	3695	3690	3698	9
3698	3690	3695	3699	9
3697	3694	3695	3699	9
3701	3700	10994	10987	9
3701	3700	10994	10996	9
10913	10912	10911	10922	9
10916	10912	10911	10922	9
10915	10910	10911	10922	9
10918	10910	10911	10922	9
10922	10906	10899	10900	9
10922	10906	10899	10898	9
10911	10912	10913	10920	9
10916	10912	10913	10920	9
10915	10914	10913	10920	9
10917	10914	10913	10920	9
10920	10930	10924	10925	9
10920	10930	10924	10927	9
10911	10922	10906	10899	9
10911	10922	10906	10908	9
10911	10912	10913	10914	9
10911	10910	10915	10914	9
10911	10910	10915	10919	9
10913	10920	10930	10924	9
10913	10920	10930	10931	9
10910	10911	10912	10913	9
10910	10915	10914	10913	9
10913	10914	10915	10919	9
10912	10911	10922	10923	9
10912	10911	10922	10906	9
10912	10911	10910	10915	9
10912	10911	10910	10918	9
10912	10913	10920	10921	9
10912	10913	10920	10930	9
10912	10913	10914	10915	9
10912	10913	10914	10917	9
10910	10911	10922	10923	9
10910	10911	10922	10906	9
10910	10911	10912	10916	9
10910	10915	10914	10917	9
10914	10913	10920	10921	9
10914	10913	10920	10930	9
10914	10913	10912	10916	9
10914	10915	10910	10918	9
10918	10910	10915	10919	9
10917	10914	10915	10919	9
10923	10922	10906	10899	9
10923	10922	10906	10908	9
10921	10920	10930	10924	9
10921	10920	10930	10931	9
3526	3527	3528	3535	9
3531	3527	3528	3535	9
3530	3529	3528	3535	9
3532	3529	3528	3535	9
3535	9769	9759	9758	9
3535	9769	9759	9762	9
3528	3527	3526	3537	9
3531	3527	3526	3537	9
3530	3525	3526	3537	9
3533	3525	3526	3537	9
3528	3535	9769	9759	9
3528	3535	9769	9771	9
3525	3526	3527	3528	9
3525	3530	3529	3528	9
3528	3529	3530	3534	9
3526	3527	3528	3529	9
3526	3525	3530	3529	9
3526	3525	3530	3534	9
3527	3528	3535	3536	9
3527	3528	3535	9769	9
3527	3528	3529	3530	9
3527	3528	3529	3532	9
3527	3526	3537	3538	9
3527	3526	3537	3539	9
3527	3526	3525	3530	9
3527	3526	3525	3533	9
3529	3528	3535	3536	9
3529	3528	3535	9769	9
3529	3528	3527	3531	9
3529	3530	3525	3533	9
3525	3526	3537	3538	9
3525	3526	3537	3539	9
3525	3526	3527	3531	9
3525	3530	3529	3532	9
3532	3529	3530	3534	9
3533	3525	3530	3534	9
3536	3535	9769	9759	9
3536	3535	9769	9771	9
12998	12997	12996	13007	9
13001	12997	12996	13007	9
13000	12995	12996	13007	9
13003	12995	12996	13007	9
13007	7505	7498	7499	9
13007	7505	7498	7497	9
12996	12997	12998	13005	9
13001	12997	12998	13005	9
13000	12999	12998	13005	9
13002	12999	12998	13005	9
13005	9504	9497	9498	9
13005	9504	9497	9496	9
12996	13007	7505	7498	9
12996	13007	7505	7507	9
12996	12997	12998	12999	9
12996	12995	13000	12999	9
12996	12995	13000	13004	9
12998	13005	9504	9497	9
12998	13005	9504	9506	9
12995	12996	12997	12998	9
12995	13000	12999	12998	9
12998	12999	13000	13004	9
12997	12996	13007	13008	9
12997	12996	13007	7505	9
12997	12996	12995	13000	9
12997	12996	12995	13003	9
12997	12998	13005	13006	9
12997	12998	13005	9504	9
12997	12998	12999	13000	9
12997	12998	12999	13002	9
12995	12996	13007	13008	9
12995	12996	13007	7505	9
12995	12996	12997	13001	9
12995	13000	12999	13002	9
12999	12998	13005	13006	9
12999	12998	13005	9504	9
12999	12998	12997	13001	9
12999	13000	12995	13003	9
13003	12995	13000	13004	9
13002	12999	13000	13004	9
13008	13007	7505	7498	9
13008	13007	7505	7507	9
13006	13005	9504	9497	9
13006	13005	9504	9506	9
10008	10007	10006	10017	9
10011	10007	10006	10017	9
10010	10005	10006	10017	9
10013	10005	10006	10017	9
10017	10025	10019	10022	9
10017	10025	10019	10020	9
10006	10007	10008	10015	9
10011	10007	10008	10015	9
10010	10009	10008	10015	9
10012	10009	10008	10015	9
10015	3982	3972	3971	9
10015	3982	3972	3975	9
10006	10017	10025	10019	9
10006	10017	10025	10026	9
10006	10007	10008	10009	9
10006	10005	10010	10009	9
10006	10005	10010	10014	9
10008	10015	3982	3972	9
10008	10015	3982	3984	9
10005	10006	10007	10008	9
10005	10010	10009	10008	9
10008	10009	10010	10014	9
10007	10006	10017	10018	9
10007	10006	10017	10025	9
10007	10006	10005	10010	9
10007	10006	10005	10013	9
10007	10008	10015	10016	9
10007	10008	10015	3982	9
10007	10008	10009	10010	9
10007	10008	10009	10012	9
10005	10006	10017	10018	9
10005	10006	10017	10025	9
10005	10006	10007	10011	9
10005	10010	10009	10012	9
10009	10008	10015	10016	9
10009	10008	10015	3982	9
10009	10008	10007	10011	9
10009	10010	10005	10013	9
10013	10005	10010	10014	9
10012	10009	10010	10014	9
10018	10017	10025	10019	9
10018	10017	10025	10026	9
10016	10015	3982	3972	9
10016	10015	3982	3984	9
11332	11331	11330	11341	9
11335	11331	11330	11341	9
11334	11329	11330	11341	9
11337	11329	11330	11341	9
11341	4126	4119	4120	9
11341	4126	4119	4118	9
11330	11331	11332	11339	9
11335	11331	11332	11339	9
11334	11333	11332	11339	9
11336	11333	11332	11339	9
11339	10263	10253	10256	9
11339	10263	10253	10252	9
11330	11341	4126	4119	9
11330	11341	4126	4128	9
11330	11331	11332	11333	9
11330	11329	11334	11333	9
11330	11329	11334	11338	9
11332	11339	10263	10253	9
11332	11339	10263	10265	9
11329	11330	11331	11332	9
11329	11334	11333	11332	9
11332	11333	11334	11338	9
11331	11330	11341	11342	9
11331	11330	11341	4126	9
11331	11330	11329	11334	9
11331	11330	11329	11337	9
11331	11332	11339	11340	9
11331	11332	11339	10263	9
11331	11332	11333	11334	9
11331	11332	11333	11336	9
11329	11330	11341	11342	9
11329	11330	11341	4126	9
11329	11330	11331	11335	9
11329	11334	11333	11336	9
11333	11332	11339	11340	9
11333	11332	11339	10263	9
11333	11332	11331	11335	9
11333	11334	11329	11337	9
11337	11329	11334	11338	9
11336	11333	11334	11338	9
11342	11341	4126	4119	9
11342	11341	4126	4128	9
11340	11339	10263	10253	9
11340	11339	10263	10265	9
3436	3437	3438	3445	9
3441	3437	3438	3445	9
3440	3439	3438	3445	9
3442	3439	3438	3445	9
3445	9533	9526	9525	9
3445	9533	9526	9527	9
3438	3437	3436	3447	9
3441	3437	3436	3447	9
3440	3435	3436	3447	9
3443	3435	3436	3447	9
3438	3445	9533	9526	9
3438	3445	9533	9535	9
3435	3436	3437	3438	9
3435	3440	3439	3438	9
3438	3439	3440	3444	9
3436	3437	3438	3439	9
3436	3435	3440	3439	9
3436	3435	3440	3444	9
3437	3438	3445	3446	9
3437	3438	3445	9533	9
3437	3438	3439	3440	9
3437	3438	3439	3442	9
3437	3436	3447	3449	9
3437	3436	3447	3448	9
3437	3436	3435	3440	9
3437	3436	3435	3443	9
3439	3438	3445	3446	9
3439	3438	3445	9533	9
3439	3438	3437	3441	9
3439	3440	3435	3443	9
3435	3436	3447	3449	9
3435	3436	3447	3448	9
3435	3436	3437	3441	9
3435	3440	3439	3442	9
3442	3439	3440	3444	9
3443	3435	3440	3444	9
3446	3445	9533	9526	9
3446	3445	9533	9535	9
9979	9978	9977	9988	9
9982	9978	9977	9988	9
9981	9976	9977	9988	9
9984	9976	9977	9988	9
9988	9996	9990	9991	9
9988	9996	9990	9993	9
9977	9978	9979	9986	9
9982	9978	9979	9986	9
9981	9980	9979	9986	9
9983	9980	9979	9986	9
9986	5332	5325	5324	9
9986	5332	5325	5326	9
9977	9988	9996	9990	9
9977	9988	9996	9997	9
9977	9978	9979	9980	9
9977	9976	9981	9980	9
9977	9976	9981	9985	9
9979	9986	5332	5325	9
9979	9986	5332	5334	9
9976	9977	9978	9979	9
9976	9981	9980	9979	9
9979	9980	9981	9985	9
9978	9977	9988	9989	9
9978	9977	9988	9996	9
9978	9977	9976	9981	9
9978	9977	9976	9984	9
9978	9979	9986	9987	9
9978	9979	9986	5332	9
9978	9979	9980	9981	9
9978	9979	9980	9983	9
9976	9977	9988	9989	9
9976	9977	9988	9996	9
9976	9977	9978	9982	9
9976	9981	9980	9983	9
9980	9979	9986	9987	9
9980	9979	9986	5332	9
9980	9979	9978	9982	9
9980	9981	9976	9984	9
9984	9976	9981	9985	9
9983	9980	9981	9985	9
9989	9988	9996	9990	9
9989	9988	9996	9997	9
9987	9986	5332	5325	9
9987	9986	5332	5334	9
4961	4960	4959	4970	9
4964	4960	4959	4970	9
4963	4958	4959	4970	9
4966	4958	4959	4970	9
4970	4978	4972	4973	9
4970	4978	4972	4975	9
4959	4960	4961	4968	9
4964	4960	4961	4968	9
4963	4962	4961	4968	9
4965	4962	4961	4968	9
4968	6014	6008	6011	9
4968	6014	6008	6009	9
4959	4970	4978	4972	9
4959	4970	4978	4979	9
4959	4960	4961	4962	9
4959	4958	4963	4962	9
4959	4958	4963	4967	9
4961	4968	6014	6008	9
4961	4968	6014	6015	9
4958	4959	4960	4961	9
4958	4963	4962	4961	9
4961	4962	4963	4967	9
4960	4959	4970	4971	9
4960	4959	4970	4978	9
4960	4959	4958	4963	9
4960	4959	4958	4966	9
4960	4961	4968	4969	9
4960	4961	4968	6014	9
4960	4961	4962	4963	9
4960	4961	4962	4965	9
4958	4959	4970	4971	9
4958	4959	4970	4978	9
4958	4959	4960	4964	9
4958	4963	4962	4965	9
4962	4961	4968	4969	9
4962	4961	4968	6014	9
4962	4961	4960	4964	9
4962	4963	4958	4966	9
4966	4958	4963	4967	9
4965	4962	4963	4967	9
4971	4970	4978	4972	9
4971	4970	4978	4979	9
4969	4968	6014	6008	9
4969	4968	6014	6015	9
2613	2612	2611	2622	9
2616	2612	2611	2622	9
2615	2610	2611	2622	9
2618	2610	2611	2622	9
2611	2612	2613	2620	9
2616	2612	2613	2620	9
2615	2614	2613	2620	9
2617	2614	2613	2620	9
2620	3860	3854	3857	9
2620	3860	3854	3855	9
2611	2612	2613	2614	9
2611	2610	2615	2614	9
2611	2610	2615	2619	9
2613	2620	3860	3854	9
2613	2620	3860	3861	9
2610	2611	2612	2613	9
2610	2615	2614	2613	9
2613	2614	2615	2619	9
2612	2611	2622	2623	9
2612	2611	2622	2624	9
2612	2611	2610	2615	9
2612	2611	2610	2618	9
2612	2613	2620	2621	9
2612	2613	2620	3860	9
2612	2613	2614	2615	9
2612	2613	2614	2617	9
2610	2611	2622	2623	9
2610	2611	2622	2624	9
2610	2611	2612	2616	9
2610	2615	2614	2617	9
2614	2613	2620	2621	9
2614	2613	2620	3860	9
2614	2613	2612	2616	9
2614	2615	2610	2618	9
2618	2610	2615	2619	9
2617	2614	2615	2619	9
2621	2620	3860	3854	9
2621	2620	3860	3861	9
3061	3062	3063	3070	9
3066	3062	3063	3070	9
3065	3064	3063	3070	9
3067	3064	3063	3070	9
3070	7462	7452	7455	9
3070	7462	7452	7451	9
3063	3062	3061	3072	9
3066	3062	3061	3072	9
3065	3060	3061	3072	9
3068	3060	3061	3072	9
3063	3070	7462	7452	9
3063	3070	7462	7464	9
3060	3061	3062	3063	9
3060	3065	3064	3063	9
3063	3064	3065	3069	9
3061	3062	3063	3064	9
3061	3060	3065	3064	9
3061	3060	3065	3069	9
3062	3063	3070	3071	9
3062	3063	3070	7462	9
3062	3063	3064	3065	9
3062	3063	3064	3067	9
3062	3061	3072	3073	9
3062	3061	3072	3074	9
3062	3061	3060	3065	9
3062	3061	3060	3068	9
3064	3063	3070	3071	9
3064	3063	3070	7462	9
3064	3063	3062	3066	9
3064	3065	3060	3068	9
3060	3061	3072	3073	9
3060	3061	3072	3074	9
3060	3061	3062	3066	9
3060	3065	3064	3067	9
3067	3064	3065	3069	9
3068	3060	3065	3069	9
3071	3070	7462	7452	9
3071	3070	7462	7464	9
6885	6884	6883	6894	9
6888	6884	6883	6894	9
6887	6882	6883	6894	9
6890	6882	6883	6894	9
6894	6704	6694	6697	9
6894	6704	6694	6693	9
6883	6884	6885	6892	9
6888	6884	6885	6892	9
6887	6886	6885	6892	9
6889	6886	6885	6892	9
6892	6902	6896	6897	9
6892	6902	6896	6899	9
6883	6894	6704	6694	9
6883	6894	6704	6706	9
6883	6884	6885	6886	9
6883	6882	6887	6886	9
6883	6882	6887	6891	9
6885	6892	6902	6896	9
6885	6892	6902	6903	9
6882	6883	6884	6885	9
6882	6887	6886	6885	9
6885	6886	6887	6891	9
6884	6883	6894	6895	9
6884	6883	6894	6704	9
6884	6883	6882	6887	9
6884	6883	6882	6890	9
6884	6885	6892	6893	9
6884	6885	6892	6902	9
6884	6885	6886	6887	9
6884	6885	6886	6889	9
6882	6883	6894	6895	9
6882	6883	6894	6704	9
6882	6883	6884	6888	9
6882	6887	6886	6889	9
6886	6885	6892	6893	9
6886	6885	6892	6902	9
6886	6885	6884	6888	9
6886	6887	6882	6890	9
6890	6882	6887	6891	9
6889	6886	6887	6891	9
6895	6894	6704	6694	9
6895	6894	6704	6706	9
6893	6892	6902	6896	9
6893	6892	6902	6903	9
11976	11975	11974	11985	9
11979	11975	11974	11985	9
11978	11973	11974	11985	9
11981	11973	11974	11985	9
11985	5216	5209	5208	9
11985	5216	5209	5210	9
11974	11975	11976	11983	9
11979	11975	11976	11983	9
11978	11977	11976	11983	9
11980	11977	11976	11983	9
11983	8762	8752	8755	9
11983	8762	8752	8751	9
11974	11985	5216	5209	9
11974	11985	5216	5218	9
11974	11975	11976	11977	9
11974	11973	11978	11977	9
11974	11973	11978	11982	9
11976	11983	8762	8752	9
11976	11983	8762	8764	9
11973	11974	11975	11976	9
11973	11978	11977	11976	9
11976	11977	11978	11982	9
11975	11974	11985	11986	9
11975	11974	11985	5216	9
11975	11974	11973	11978	9
11975	11974	11973	11981	9
11975	11976	11983	11984	9
11975	11976	11983	8762	9
11975	11976	11977	11978	9
11975	11976	11977	11980	9
11973	11974	11985	11986	9
11973	11974	11985	5216	9
11973	11974	11975	11979	9
11973	11978	11977	11980	9
11977	11976	11983	11984	9
11977	11976	11983	8762	9
11977	11976	11975	11979	9
11977	11978	11973	11981	9
11981	11973	11978	11982	9
11980	11977	11978	11982	9
11986	11985	5216	5209	9
11986	11985	5216	5218	9
11984	11983	8762	8752	9
11984	11983	8762	8764	9
12032	12031	12030	12041	9
12035	12031	12030	12041	9
12034	12029	12030	12041	9
12037	12029	12030	12041	9
12041	8058	8051	8052	9
12041	8058	8051	8050	9
12030	12031	12032	12039	9
12035	12031	12032	12039	9
12034	12033	12032	12039	9
12036	12033	12032	12039	9
12039	5435	5425	5428	9
12039	5435	5425	5424	9
12030	12041	8058	8051	9
12030	12041	8058	8060	9
12030	12031	12032	12033	9
12030	12029	12034	12033	9
12030	12029	12034	12038	9
12032	12039	5435	5425	9
12032	12039	5435	5437	9
12029	12030	12031	12032	9
12029	12034	12033	12032	9
12032	12033	12034	12038	9
12031	12030	12041	12042	9
12031	12030	12041	8058	9
12031	12030	12029	12034	9
12031	12030	12029	12037	9
12031	12032	12039	12040	9
12031	12032	12039	5435	9
12031	12032	12033	12034	9
12031	12032	12033	12036	9
12029	12030	12041	12042	9
12029	12030	12041	8058	9
12029	12030	12031	12035	9
12029	12034	12033	12036	9
12033	12032	12039	12040	9
12033	12032	12039	5435	9
12033	12032	12031	12035	9
12033	12034	12029	12037	9
12037	12029	12034	12038	9
12036	12033	12034	12038	9
12042	12041	8058	8051	9
12042	12041	8058	8060	9
12040	12039	5435	5425	9
12040	12039	5435	5437	9
587	586	585	596	9
590	586	585	596	9
589	584	585	596	9
592	584	585	596	9
596	10448	10442	10445	9
596	10448	10442	10443	9
585	586	587	594	9
590	586	587	594	9
589	588	587	594	9
591	588	587	594	9
568	567	573	594	9
570	567	573	594	9
585	596	10448	10442	9
585	596	10448	10449	9
585	586	587	588	9
585	584	589	588	9
585	584	589	593	9
567	573	594	587	9
574	573	594	587	9
584	585	586	587	9
584	589	588	587	9
587	588	589	593	9
586	585	596	597	9
586	585	596	10448	9
586	585	584	589	9
586	585	584	592	9
586	587	594	595	9
573	594	587	586	9
586	587	588	589	9
586	587	588	591	9
584	585	596	597	9
584	585	596	10448	9
584	585	586	590	9
584	589	588	591	9
588	587	594	595	9
573	594	587	588	9
588	587	586	590	9
588	589	584	592	9
592	584	589	593	9
591	588	589	593	9
597	596	10448	10442	9
597	596	10448	10449	9
567	573	594	595	9
574	573	594	595	9
13236	13235	13234	13245	9
13239	13235	13234	13245	9
13238	13233	13234	13245	9
13241	13233	13234	13245	9
13245	9667	9657	9656	9
13245	9667	9657	9660	9
13234	13235	13236	13243	9
13239	13235	13236	13243	9
13238	13237	13236	13243	9
13240	13237	13236	13243	9
13243	8189	8182	8181	9
13243	8189	8182	8183	9
13234	13245	9667	9657	9
13234	13245	9667	9669	9
13234	13235	13236	13237	9
13234	13233	13238	13237	9
13234	13233	13238	13242	9
13236	13243	8189	8182	9
13236	13243	8189	8191	9
13233	13234	13235	13236	9
13233	13238	13237	13236	9
13236	13237	13238	13242	9
13235	13234	13245	13246	9
13235	13234	13245	9667	9
13235	13234	13233	13238	9
13235	13234	13233	13241	9
13235	13236	13243	13244	9
13235	13236	13243	8189	9
13235	13236	13237	13238	9
13235	13236	13237	13240	9
13233	13234	13245	13246	9
13233	13234	13245	9667	9
13233	13234	13235	13239	9
13233	13238	13237	13240	9
13237	13236	13243	13244	9
13237	13236	13243	8189	9
13237	13236	13235	13239	9
13237	13238	13233	13241	9
13241	13233	13238	13242	9
13240	13237	13238	13242	9
13246	13245	9667	9657	9
13246	13245	9667	9669	9
13244	13243	8189	8182	9
13244	13243	8189	8191	9
12102	12101	12100	12111	9
12105	12101	12100	12111	9
12104	12099	12100	12111	9
12107	12099	12100	12111	9
12111	10556	10549	10550	9
12111	10556	10549	10548	9
12100	12101	12102	12109	9
12105	12101	12102	12109	9
12104	12103	12102	12109	9
12106	12103	12102	12109	9
12109	5536	5529	5528	9
12109	5536	5529	5530	9
12100	12111	10556	10549	9
12100	12111	10556	10558	9
12100	12101	12102	12103	9
12100	12099	12104	12103	9
12100	12099	12104	12108	9
12102	12109	5536	5529	9
12102	12109	5536	5538	9
12099	12100	12101	12102	9
12099	12104	12103	12102	9
12102	12103	12104	12108	9
12101	12100	12111	12112	9
12101	12100	12111	10556	9
12101	12100	12099	12104	9
12101	12100	12099	12107	9
12101	12102	12109	12110	9
12101	12102	12109	5536	9
12101	12102	12103	12104	9
12101	12102	12103	12106	9
12099	12100	12111	12112	9
12099	12100	12111	10556	9
12099	12100	12101	12105	9
12099	12104	12103	12106	9
12103	12102	12109	12110	9
12103	12102	12109	5536	9
12103	12102	12101	12105	9
12103	12104	12099	12107	9
12107	12099	12104	12108	9
12106	12103	12104	12108	9
12112	12111	10556	10549	9
12112	12111	10556	10558	9
12110	12109	5536	5529	9
12110	12109	5536	5538	9
6434	6433	6432	6443	9
6437	6433	6432	6443	9
6436	6431	6432	6443	9
6439	6431	6432	6443	9
1777	1776	1783	6443	9
1775	1776	1783	6443	9
6432	6433	6434	6441	9
6437	6433	6434	6441	9
6436	6435	6434	6441	9
6438	6435	6434	6441	9
6441	6451	6445	6448	9
6441	6451	6445	6446	9
1776	1783	6443	6432	9
1785	1783	6443	6432	9
6432	6433	6434	6435	9
6432	6431	6436	6435	9
6432	6431	6436	6440	9
6434	6441	6451	6445	9
6434	6441	6451	6452	9
6431	6432	6433	6434	9
6431	6436	6435	6434	9
6434	6435	6436	6440	9
6433	6432	6443	6444	9
1783	6443	6432	6433	9
6433	6432	6431	6436	9
6433	6432	6431	6439	9
6433	6434	6441	6442	9
6433	6434	6441	6451	9
6433	6434	6435	6436	9
6433	6434	6435	6438	9
6431	6432	6443	6444	9
1783	6443	6432	6431	9
6431	6432	6433	6437	9
6431	6436	6435	6438	9
6435	6434	6441	6442	9
6435	6434	6441	6451	9
6435	6434	6433	6437	9
6435	6436	6431	6439	9
6439	6431	6436	6440	9
6438	6435	6436	6440	9
1776	1783	6443	6444	9
1785	1783	6443	6444	9
6442	6441	6451	6445	9
6442	6441	6451	6452	9
3318	3317	3316	3327	9
3321	3317	3316	3327	9
3320	3315	3316	3327	9
3323	3315	3316	3327	9
3316	3317	3318	3325	9
3321	3317	3318	3325	9
3320	3319	3318	3325	9
3322	3319	3318	3325	9
3325	9019	9013	9014	9
3325	9019	9013	9016	9
3316	3317	3318	3319	9
3316	3315	3320	3319	9
3316	3315	3320	3324	9
3318	3325	9019	9013	9
3318	3325	9019	9020	9
3315	3316	3317	3318	9
3315	3320	3319	3318	9
3318	3319	3320	3324	9
3317	3316	3327	3329	9
3317	3316	3327	3328	9
3317	3316	3315	3320	9
3317	3316	3315	3323	9
3317	3318	3325	3326	9
3317	3318	3325	9019	9
3317	3318	3319	3320	9
3317	3318	3319	3322	9
3315	3316	3327	3329	9
3315	3316	3327	3328	9
3315	3316	3317	3321	9
3315	3320	3319	3322	9
3319	3318	3325	3326	9
3319	3318	3325	9019	9
3319	3318	3317	3321	9
3319	3320	3315	3323	9
3323	3315	3320	3324	9
3322	3319	3320	3324	9
3326	3325	9019	9013	9
3326	3325	9019	9020	9
3198	3197	3196	3207	9
3201	3197	3196	3207	9
3200	3195	3196	3207	9
3203	3195	3196	3207	9
3196	3197	3198	3205	9
3201	3197	3198	3205	9
3200	3199	3198	3205	9
3202	3199	3198	3205	9
3205	8556	8549	8550	9
3205	8556	8549	8548	9
3196	3197	3198	3199	9
3196	3195	3200	3199	9
3196	3195	3200	3204	9
3198	3205	8556	8549	9
3198	3205	8556	8558	9
3195	3196	3197	3198	9
3195	3200	3199	3198	9
3198	3199	3200	3204	9
3197	3196	3207	3209	9
3197	3196	3207	3208	9
3197	3196	3195	3200	9
3197	3196	3195	3203	9
3197	3198	3205	3206	9
3197	3198	3205	8556	9
3197	3198	3199	3200	9
3197	3198	3199	3202	9
3195	3196	3207	3209	9
3195	3196	3207	3208	9
3195	3196	3197	3201	9
3195	3200	3199	3202	9
3199	3198	3205	3206	9
3199	3198	3205	8556	9
3199	3198	3197	3201	9
3199	3200	3195	3203	9
3203	3195	3200	3204	9
3202	3199	3200	3204	9
3206	3205	8556	8549	9
3206	3205	8556	8558	9
11724	11723	11722	11733	9
11727	11723	11722	11733	9
11726	11721	11722	11733	9
11729	11721	11722	11733	9
11733	8323	8313	8312	9
11733	8323	8313	8316	9
11722	11723	11724	11731	9
11727	11723	11724	11731	9
11726	11725	11724	11731	9
11728	11725	11724	11731	9
11731	4765	4758	4757	9
11731	4765	4758	4759	9
11722	11733	8323	8313	9
11722	11733	8323	8325	9
11722	11723	11724	11725	9
11722	11721	11726	11725	9
11722	11721	11726	11730	9
11724	11731	4765	4758	9
11724	11731	4765	4767	9
11721	11722	11723	11724	9
11721	11726	11725	11724	9
11724	11725	11726	11730	9
11723	11722	11733	11734	9
11723	11722	11733	8323	9
11723	11722	11721	11726	9
11723	11722	11721	11729	9
11723	11724	11731	11732	9
11723	11724	11731	4765	9
11723	11724	11725	11726	9
11723	11724	11725	11728	9
11721	11722	11733	11734	9
11721	11722	11733	8323	9
11721	11722	11723	11727	9
11721	11726	11725	11728	9
11725	11724	11731	11732	9
11725	11724	11731	4765	9
11725	11724	11723	11727	9
11725	11726	11721	11729	9
11729	11721	11726	11730	9
11728	11725	11726	11730	9
11734	11733	8323	8313	9
11734	11733	8323	8325	9
11732	11731	4765	4758	9
11732	11731	4765	4767	9
12954	12955	12956	12963	9
12959	12955	12956	12963	9
12958	12957	12956	12963	9
12960	12957	12956	12963	9
12963	7388	7381	7380	9
12963	7388	7381	7382	9
12956	12955	12954	12965	9
12959	12955	12954	12965	9
12958	12953	12954	12965	9
12961	12953	12954	12965	9
12965	8702	8695	8694	9
12965	8702	8695	8696	9
12956	12963	7388	7381	9
12956	12963	7388	7390	9
12953	12954	12955	12956	9
12953	12958	12957	12956	9
12956	12957	12958	12962	9
12954	12965	8702	8695	9
12954	12965	8702	8704	9
12954	12955	12956	12957	9
12954	12953	12958	12957	9
12954	12953	12958	12962	9
12955	12956	12963	12964	9
12955	12956	12963	7388	9
12955	12956	12957	12958	9
12955	12956	12957	12960	9
12955	12954	12965	12966	9
12955	12954	12965	8702	9
12955	12954	12953	12958	9
12955	12954	12953	12961	9
12957	12956	12963	12964	9
12957	12956	12963	7388	9
12957	12956	12955	12959	9
12957	12958	12953	12961	9
12953	12954	12965	12966	9
12953	12954	12965	8702	9
12953	12954	12955	12959	9
12953	12958	12957	12960	9
12960	12957	12958	12962	9
12961	12953	12958	12962	9
12964	12963	7388	7381	9
12964	12963	7388	7390	9
12966	12965	8702	8695	9
12966	12965	8702	8704	9
12354	12353	12352	12363	9
12357	12353	12352	12363	9
12356	12351	12352	12363	9
12359	12351	12352	12363	9
12363	5872	5865	5866	9
12363	5872	5865	5864	9
12352	12353	12354	12361	9
12357	12353	12354	12361	9
12356	12355	12354	12361	9
12358	12355	12354	12361	9
12361	8645	8635	8634	9
12361	8645	8635	8638	9
12352	12363	5872	5865	9
12352	12363	5872	5874	9
12352	12353	12354	12355	9
12352	12351	12356	12355	9
12352	12351	12356	12360	9
12354	12361	8645	8635	9
12354	12361	8645	8647	9
12351	12352	12353	12354	9
12351	12356	12355	12354	9
12354	12355	12356	12360	9
12353	12352	12363	12364	9
12353	12352	12363	5872	9
12353	12352	12351	12356	9
12353	12352	12351	12359	9
12353	12354	12361	12362	9
12353	12354	12361	8645	9
12353	12354	12355	12356	9
12353	12354	12355	12358	9
12351	12352	12363	12364	9
12351	12352	12363	5872	9
12351	12352	12353	12357	9
12351	12356	12355	12358	9
12355	12354	12361	12362	9
12355	12354	12361	8645	9
12355	12354	12353	12357	9
12355	12356	12351	12359	9
12359	12351	12356	12360	9
12358	12355	12356	12360	9
12364	12363	5872	5865	9
12364	12363	5872	5874	9
12362	12361	8645	8635	9
12362	12361	8645	8647	9
12382	12381	12380	12391	9
12385	12381	12380	12391	9
12384	12379	12380	12391	9
12387	12379	12380	12391	9
12391	5901	5894	5895	9
12391	5901	5894	5893	9
12380	12381	12382	12389	9
12385	12381	12382	12389	9
12384	12383	12382	12389	9
12386	12383	12382	12389	9
12389	10307	10297	10296	9
12389	10307	10297	10300	9
12380	12391	5901	5894	9
12380	12391	5901	5903	9
12380	12381	12382	12383	9
12380	12379	12384	12383	9
12380	12379	12384	12388	9
12382	12389	10307	10297	9
12382	12389	10307	10309	9
12379	12380	12381	12382	9
12379	12384	12383	12382	9
12382	12383	12384	12388	9
12381	12380	12391	12392	9
12381	12380	12391	5901	9
12381	12380	12379	12384	9
12381	12380	12379	12387	9
12381	12382	12389	12390	9
12381	12382	12389	10307	9
12381	12382	12383	12384	9
12381	12382	12383	12386	9
12379	12380	12391	12392	9
12379	12380	12391	5901	9
12379	12380	12381	12385	9
12379	12384	12383	12386	9
12383	12382	12389	12390	9
12383	12382	12389	10307	9
12383	12382	12381	12385	9
12383	12384	12379	12387	9
12387	12379	12384	12388	9
12386	12383	12384	12388	9
12392	12391	5901	5894	9
12392	12391	5901	5903	9
12390	12389	10307	10297	9
12390	12389	10307	10309	9
3391	3392	3393	3400	9
3396	3392	3393	3400	9
3395	3394	3393	3400	9
3397	3394	3393	3400	9
3400	9170	9163	9162	9
3400	9170	9163	9164	9
3393	3392	3391	3402	9
3396	3392	3391	3402	9
3395	3390	3391	3402	9
3398	3390	3391	3402	9
3393	3400	9170	9163	9
3393	3400	9170	9172	9
3390	3391	3392	3393	9
3390	3395	3394	3393	9
3393	3394	3395	3399	9
3391	3392	3393	3394	9
3391	3390	3395	3394	9
3391	3390	3395	3399	9
3392	3393	3400	3401	9
3392	3393	3400	9170	9
3392	3393	3394	3395	9
3392	3393	3394	3397	9
3392	3391	3402	3403	9
3392	3391	3402	3404	9
3392	3391	3390	3395	9
3392	3391	3390	3398	9
3394	3393	3400	3401	9
3394	3393	3400	9170	9
3394	3393	3392	3396	9
3394	3395	3390	3398	9
3390	3391	3402	3403	9
3390	3391	3402	3404	9
3390	3391	3392	3396	9
3390	3395	3394	3397	9
3397	3394	3395	3399	9
3398	3390	3395	3399	9
3401	3400	9170	9163	9
3401	3400	9170	9172	9
9235	9234	9233	9244	9
9238	9234	9233	9244	9
9237	9232	9233	9244	9
9240	9232	9233	9244	9
9244	9252	9246	9249	9
9244	9252	9246	9247	9
9233	9234	9235	9242	9
9238	9234	9235	9242	9
9237	9236	9235	9242	9
9239	9236	9235	9242	9
9242	9894	9888	9891	9
9242	9894	9888	9889	9
9233	9244	9252	9246	9
9233	9244	9252	9253	9
9233	9234	9235	9236	9
9233	9232	9237	9236	9
9233	9232	9237	9241	9
9235	9242	9894	9888	9
9235	9242	9894	9895	9
9232	9233	9234	9235	9
9232	9237	9236	9235	9
9235	9236	9237	9241	9
9234	9233	9244	9245	9
9234	9233	9244	9252	9
9234	9233	9232	9237	9
9234	9233	9232	9240	9
9234	9235	9242	9243	9
9234	9235	9242	9894	9
9234	9235	9236	9237	9
9234	9235	9236	9239	9
9232	9233	9244	9245	9
9232	9233	9244	9252	9
9232	9233	9234	9238	9
9232	9237	9236	9239	9
9236	9235	9242	9243	9
9236	9235	9242	9894	9
9236	9235	9234	9238	9
9236	9237	9232	9240	9
9240	9232	9237	9241	9
9239	9236	9237	9241	9
9245	9244	9252	9246	9
9245	9244	9252	9253	9
9243	9242	9894	9888	9
9243	9242	9894	9895	9
9453	9452	9451	9462	9
9456	9452	9451	9462	9
9455	9450	9451	9462	9
9458	9450	9451	9462	9
9462	8381	8374	8373	9
9462	8381	8374	8375	9
9451	9452	9453	9460	9
9456	9452	9453	9460	9
9455	9454	9453	9460	9
9457	9454	9453	9460	9
9460	9470	9464	9467	9
9460	9470	9464	9465	9
9451	9462	8381	8374	9
9451	9462	8381	8383	9
9451	9452	9453	9454	9
9451	9450	9455	9454	9
9451	9450	9455	9459	9
9453	9460	9470	9464	9
9453	9460	9470	9471	9
9450	9451	9452	9453	9
9450	9455	9454	9453	9
9453	9454	9455	9459	9
9452	9451	9462	9463	9
9452	9451	9462	8381	9
9452	9451	9450	9455	9
9452	9451	9450	9458	9
9452	9453	9460	9461	9
9452	9453	9460	9470	9
9452	9453	9454	9455	9
9452	9453	9454	9457	9
9450	9451	9462	9463	9
9450	9451	9462	8381	9
9450	9451	9452	9456	9
9450	9455	9454	9457	9
9454	9453	9460	9461	9
9454	9453	9460	9470	9
9454	9453	9452	9456	9
9454	9455	9450	9458	9
9458	9450	9455	9459	9
9457	9454	9455	9459	9
9463	9462	8381	8374	9
9463	9462	8381	8383	9
9461	9460	9470	9464	9
9461	9460	9470	9471	9
12172	12171	12170	12181	9
12175	12171	12170	12181	9
12174	12169	12170	12181	9
12177	12169	12170	12181	9
12181	5595	5588	5587	9
12181	5595	5588	5589	9
12170	12171	12172	12179	9
12175	12171	12172	12179	9
12174	12173	12172	12179	9
12176	12173	12172	12179	9
12179	8278	8271	8272	9
12179	8278	8271	8270	9
12170	12181	5595	5588	9
12170	12181	5595	5597	9
12170	12171	12172	12173	9
12170	12169	12174	12173	9
12170	12169	12174	12178	9
12172	12179	8278	8271	9
12172	12179	8278	8280	9
12169	12170	12171	12172	9
12169	12174	12173	12172	9
12172	12173	12174	12178	9
12171	12170	12181	12182	9
12171	12170	12181	5595	9
12171	12170	12169	12174	9
12171	12170	12169	12177	9
12171	12172	12179	12180	9
12171	12172	12179	8278	9
12171	12172	12173	12174	9
12171	12172	12173	12176	9
12169	12170	12181	12182	9
12169	12170	12181	5595	9
12169	12170	12171	12175	9
12169	12174	12173	12176	9
12173	12172	12179	12180	9
12173	12172	12179	8278	9
12173	12172	12171	12175	9
12173	12174	12169	12177	9
12177	12169	12174	12178	9
12176	12173	12174	12178	9
12182	12181	5595	5588	9
12182	12181	5595	5597	9
12180	12179	8278	8271	9
12180	12179	8278	8280	9
5005	5004	5003	5014	9
5008	5004	5003	5014	9
5007	5002	5003	5014	9
5010	5002	5003	5014	9
5014	10453	10446	10445	9
5014	10453	10446	10447	9
5003	5004	5005	5012	9
5008	5004	5005	5012	9
5007	5006	5005	5012	9
5009	5006	5005	5012	9
5012	5022	5016	5017	9
5012	5022	5016	5019	9
5003	5014	10453	10446	9
5003	5014	10453	10455	9
5003	5004	5005	5006	9
5003	5002	5007	5006	9
5003	5002	5007	5011	9
5005	5012	5022	5016	9
5005	5012	5022	5023	9
5002	5003	5004	5005	9
5002	5007	5006	5005	9
5005	5006	5007	5011	9
5004	5003	5014	5015	9
5004	5003	5014	10453	9
5004	5003	5002	5007	9
5004	5003	5002	5010	9
5004	5005	5012	5013	9
5004	5005	5012	5022	9
5004	5005	5006	5007	9
5004	5005	5006	5009	9
5002	5003	5014	5015	9
5002	5003	5014	10453	9
5002	5003	5004	5008	9
5002	5007	5006	5009	9
5006	5005	5012	5013	9
5006	5005	5012	5022	9
5006	5005	5004	5008	9
5006	5007	5002	5010	9
5010	5002	5007	5011	9
5009	5006	5007	5011	9
5015	5014	10453	10446	9
5015	5014	10453	10455	9
5013	5012	5022	5016	9
5013	5012	5022	5023	9
2009	2008	2007	2018	9
2012	2008	2007	2018	9
2011	2006	2007	2018	9
2014	2006	2007	2018	9
1990	1989	1995	2018	9
1992	1989	1995	2018	9
2007	2008	2009	2016	9
2012	2008	2009	2016	9
2011	2010	2009	2016	9
2013	2010	2009	2016	9
2016	4504	4497	4498	9
2016	4504	4497	4496	9
1989	1995	2018	2007	9
1996	1995	2018	2007	9
2007	2008	2009	2010	9
2007	2006	2011	2010	9
2007	2006	2011	2015	9
2009	2016	4504	4497	9
2009	2016	4504	4506	9
2006	2007	2008	2009	9
2006	2011	2010	2009	9
2009	2010	2011	2015	9
2008	2007	2018	2019	9
1995	2018	2007	2008	9
2008	2007	2006	2011	9
2008	2007	2006	2014	9
2008	2009	2016	2017	9
2008	2009	2016	4504	9
2008	2009	2010	2011	9
2008	2009	2010	2013	9
2006	2007	2018	2019	9
1995	2018	2007	2006	9
2006	2007	2008	2012	9
2006	2011	2010	2013	9
2010	2009	2016	2017	9
2010	2009	2016	4504	9
2010	2009	2008	2012	9
2010	2011	2006	2014	9
2014	2006	2011	2015	9
2013	2010	2011	2015	9
1989	1995	2018	2019	9
1996	1995	2018	2019	9
2017	2016	4504	4497	9
2017	2016	4504	4506	9
7803	7802	7801	7812	9
7806	7802	7801	7812	9
7805	7800	7801	7812	9
7808	7800	7801	7812	9
7812	6907	6900	6901	9
7812	6907	6900	6899	9
7801	7802	7803	7810	9
7806	7802	7803	7810	9
7805	7804	7803	7810	9
7807	7804	7803	7810	9
7810	7820	7814	7815	9
7810	7820	7814	7817	9
7801	7812	6907	6900	9
7801	7812	6907	6909	9
7801	7802	7803	7804	9
7801	7800	7805	7804	9
7801	7800	7805	7809	9
7803	7810	7820	7814	9
7803	7810	7820	7821	9
7800	7801	7802	7803	9
7800	7805	7804	7803	9
7803	7804	7805	7809	9
7802	7801	7812	7813	9
7802	7801	7812	6907	9
7802	7801	7800	7805	9
7802	7801	7800	7808	9
7802	7803	7810	7811	9
7802	7803	7810	7820	9
7802	7803	7804	7805	9
7802	7803	7804	7807	9
7800	7801	7812	7813	9
7800	7801	7812	6907	9
7800	7801	7802	7806	9
7800	7805	7804	7807	9
7804	7803	7810	7811	9
7804	7803	7810	7820	9
7804	7803	7802	7806	9
7804	7805	7800	7808	9
7808	7800	7805	7809	9
7807	7804	7805	7809	9
7813	7812	6907	6900	9
7813	7812	6907	6909	9
7811	7810	7820	7814	9
7811	7810	7820	7821	9
6594	6593	6592	6603	9
6597	6593	6592	6603	9
6596	6591	6592	6603	9
6599	6591	6592	6603	9
6603	9763	9757	9758	9
6603	9763	9757	9760	9
6592	6593	6594	6601	9
6597	6593	6594	6601	9
6596	6595	6594	6601	9
6598	6595	6594	6601	9
6601	6611	6605	6606	9
6601	6611	6605	6608	9
6592	6603	9763	9757	9
6592	6603	9763	9764	9
6592	6593	6594	6595	9
6592	6591	6596	6595	9
6592	6591	6596	6600	9
6594	6601	6611	6605	9
6594	6601	6611	6612	9
6591	6592	6593	6594	9
6591	6596	6595	6594	9
6594	6595	6596	6600	9
6593	6592	6603	6604	9
6593	6592	6603	9763	9
6593	6592	6591	6596	9
6593	6592	6591	6599	9
6593	6594	6601	6602	9
6593	6594	6601	6611	9
6593	6594	6595	6596	9
6593	6594	6595	6598	9
6591	6592	6603	6604	9
6591	6592	6603	9763	9
6591	6592	6593	6597	9
6591	6596	6595	6598	9
6595	6594	6601	6602	9
6595	6594	6601	6611	9
6595	6594	6593	6597	9
6595	6596	6591	6599	9
6599	6591	6596	6600	9
6598	6595	6596	6600	9
6604	6603	9763	9757	9
6604	6603	9763	9764	9
6602	6601	6611	6605	9
6602	6601	6611	6612	9
5514	5513	5512	5523	9
5517	5513	5512	5523	9
5516	5511	5512	5523	9
5519	5511	5512	5523	9
5523	5531	5525	5528	9
5523	5531	5525	5526	9
5512	5513	5514	5521	9
5517	5513	5514	5521	9
5516	5515	5514	5521	9
5518	5515	5514	5521	9
5521	8673	8666	8667	9
5521	8673	8666	8665	9
5512	5523	5531	5525	9
5512	5523	5531	5532	9
5512	5513	5514	5515	9
5512	5511	5516	5515	9
5512	5511	5516	5520	9
5514	5521	8673	8666	9
5514	5521	8673	8675	9
5511	5512	5513	5514	9
5511	5516	5515	5514	9
5514	5515	5516	5520	9
5513	5512	5523	5524	9
5513	5512	5523	5531	9
5513	5512	5511	5516	9
5513	5512	5511	5519	9
5513	5514	5521	5522	9
5513	5514	5521	8673	9
5513	5514	5515	5516	9
5513	5514	5515	5518	9
5511	5512	5523	5524	9
5511	5512	5523	5531	9
5511	5512	5513	5517	9
5511	5516	5515	5518	9
5515	5514	5521	5522	9
5515	5514	5521	8673	9
5515	5514	5513	5517	9
5515	5516	5511	5519	9
5519	5511	5516	5520	9
5518	5515	5516	5520	9
5524	5523	5531	5525	9
5524	5523	5531	5532	9
5522	5521	8673	8666	9
5522	5521	8673	8675	9
8709	8708	8707	8718	9
8712	8708	8707	8718	9
8711	8706	8707	8718	9
8714	8706	8707	8718	9
8718	3981	3974	3975	9
8718	3981	3974	3973	9
8707	8708	8709	8716	9
8712	8708	8709	8716	9
8711	8710	8709	8716	9
8713	8710	8709	8716	9
8716	8726	8720	8723	9
8716	8726	8720	8721	9
8707	8718	3981	3974	9
8707	8718	3981	3983	9
8707	8708	8709	8710	9
8707	8706	8711	8710	9
8707	8706	8711	8715	9
8709	8716	8726	8720	9
8709	8716	8726	8727	9
8706	8707	8708	8709	9
8706	8711	8710	8709	9
8709	8710	8711	8715	9
8708	8707	8718	8719	9
8708	8707	8718	3981	9
8708	8707	8706	8711	9
8708	8707	8706	8714	9
8708	8709	8716	8717	9
8708	8709	8716	8726	9
8708	8709	8710	8711	9
8708	8709	8710	8713	9
8706	8707	8718	8719	9
8706	8707	8718	3981	9
8706	8707	8708	8712	9
8706	8711	8710	8713	9
8710	8709	8716	8717	9
8710	8709	8716	8726	9
8710	8709	8708	8712	9
8710	8711	8706	8714	9
8714	8706	8711	8715	9
8713	8710	8711	8715	9
8719	8718	3981	3974	9
8719	8718	3981	3983	9
8717	8716	8726	8720	9
8717	8716	8726	8727	9
12004	12003	12002	12013	9
12007	12003	12002	12013	9
12006	12001	12002	12013	9
12009	12001	12002	12013	9
12013	7287	7277	7280	9
12013	7287	7277	7276	9
12002	12003	12004	12011	9
12007	12003	12004	12011	9
12006	12005	12004	12011	9
12008	12005	12004	12011	9
12011	5347	5340	5339	9
12011	5347	5340	5341	9
12002	12013	7287	7277	9
12002	12013	7287	7289	9
12002	12003	12004	12005	9
12002	12001	12006	12005	9
12002	12001	12006	12010	9
12004	12011	5347	5340	9
12004	12011	5347	5349	9
12001	12002	12003	12004	9
12001	12006	12005	12004	9
12004	12005	12006	12010	9
12003	12002	12013	12014	9
12003	12002	12013	7287	9
12003	12002	12001	12006	9
12003	12002	12001	12009	9
12003	12004	12011	12012	9
12003	12004	12011	5347	9
12003	12004	12005	12006	9
12003	12004	12005	12008	9
12001	12002	12013	12014	9
12001	12002	12013	7287	9
12001	12002	12003	12007	9
12001	12006	12005	12008	9
12005	12004	12011	12012	9
12005	12004	12011	5347	9
12005	12004	12003	12007	9
12005	12006	12001	12009	9
12009	12001	12006	12010	9
12008	12005	12006	12010	9
12014	12013	7287	7277	9
12014	12013	7287	7289	9
12012	12011	5347	5340	9
12012	12011	5347	5349	9
13712	13711	13710	13721	9
13715	13711	13710	13721	9
13714	13709	13710	13721	9
13717	13709	13710	13721	9
2227	2226	2233	13721	9
2225	2226	2233	13721	9
13710	13711	13712	13719	9
13715	13711	13712	13719	9
13714	13713	13712	13719	9
13716	13713	13712	13719	9
13719	10615	10605	10604	9
13719	10615	10605	10608	9
2226	2233	13721	13710	9
2235	2233	13721	13710	9
13710	13711	13712	13713	9
13710	13709	13714	13713	9
13710	13709	13714	13718	9
13712	13719	10615	10605	9
13712	13719	10615	10617	9
13709	13710	13711	13712	9
13709	13714	13713	13712	9
13712	13713	13714	13718	9
13711	13710	13721	13722	9
2233	13721	13710	13711	9
13711	13710	13709	13714	9
13711	13710	13709	13717	9
13711	13712	13719	13720	9
13711	13712	13719	10615	9
13711	13712	13713	13714	9
13711	13712	13713	13716	9
13709	13710	13721	13722	9
2233	13721	13710	13709	9
13709	13710	13711	13715	9
13709	13714	13713	13716	9
13713	13712	13719	13720	9
13713	13712	13719	10615	9
13713	13712	13711	13715	9
13713	13714	13709	13717	9
13717	13709	13714	13718	9
13716	13713	13714	13718	9
2226	2233	13721	13722	9
2235	2233	13721	13722	9
13720	13719	10615	10605	9
13720	13719	10615	10617	9
11640	11639	11638	11649	9
11643	11639	11638	11649	9
11642	11637	11638	11649	9
11645	11637	11638	11649	9
11649	4650	4640	4639	9
11649	4650	4640	4643	9
11638	11639	11640	11647	9
11643	11639	11640	11647	9
11642	11641	11640	11647	9
11644	11641	11640	11647	9
325	324	331	11647	9
323	324	331	11647	9
11638	11649	4650	4640	9
11638	11649	4650	4652	9
11638	11639	11640	11641	9
11638	11637	11642	11641	9
11638	11637	11642	11646	9
324	331	11647	11640	9
333	331	11647	11640	9
11637	11638	11639	11640	9
11637	11642	11641	11640	9
11640	11641	11642	11646	9
11639	11638	11649	11650	9
11639	11638	11649	4650	9
11639	11638	11637	11642	9
11639	11638	11637	11645	9
11639	11640	11647	11648	9
331	11647	11640	11639	9
11639	11640	11641	11642	9
11639	11640	11641	11644	9
11637	11638	11649	11650	9
11637	11638	11649	4650	9
11637	11638	11639	11643	9
11637	11642	11641	11644	9
11641	11640	11647	11648	9
331	11647	11640	11641	9
11641	11640	11639	11643	9
11641	11642	11637	11645	9
11645	11637	11642	11646	9
11644	11641	11642	11646	9
11650	11649	4650	4640	9
11650	11649	4650	4652	9
324	331	11647	11648	9
333	331	11647	11648	9
11444	11443	11442	11453	9
11447	11443	11442	11453	9
11446	11441	11442	11453	9
11449	11441	11442	11453	9
11453	4795	4785	4788	9
11453	4795	4785	4784	9
11442	11443	11444	11451	9
11447	11443	11444	11451	9
11446	11445	11444	11451	9
11448	11445	11444	11451	9
11451	4271	4264	4265	9
11451	4271	4264	4263	9
11442	11453	4795	4785	9
11442	11453	4795	4797	9
11442	11443	11444	11445	9
11442	11441	11446	11445	9
11442	11441	11446	11450	9
11444	11451	4271	4264	9
11444	11451	4271	4273	9
11441	11442	11443	11444	9
11441	11446	11445	11444	9
11444	11445	11446	11450	9
11443	11442	11453	11454	9
11443	11442	11453	4795	9
11443	11442	11441	11446	9
11443	11442	11441	11449	9
11443	11444	11451	11452	9
11443	11444	11451	4271	9
11443	11444	11445	11446	9
11443	11444	11445	11448	9
11441	11442	11453	11454	9
11441	11442	11453	4795	9
11441	11442	11443	11447	9
11441	11446	11445	11448	9
11445	11444	11451	11452	9
11445	11444	11451	4271	9
11445	11444	11443	11447	9
11445	11446	11441	11449	9
11449	11441	11446	11450	9
11448	11445	11446	11450	9
11454	11453	4795	4785	9
11454	11453	4795	4797	9
11452	11451	4271	4264	9
11452	11451	4271	4273	9
13600	13599	13598	13609	9
13603	13599	13598	13609	9
13602	13597	13598	13609	9
13605	13597	13598	13609	9
13609	10542	10532	10531	9
13609	10542	10532	10535	9
13598	13599	13600	13607	9
13603	13599	13600	13607	9
13602	13601	13600	13607	9
13604	13601	13600	13607	9
13607	9856	9846	9845	9
13607	9856	9846	9849	9
13598	13609	10542	10532	9
13598	13609	10542	10544	9
13598	13599	13600	13601	9
13598	13597	13602	13601	9
13598	13597	13602	13606	9
13600	13607	9856	9846	9
13600	13607	9856	9858	9
13597	13598	13599	13600	9
13597	13602	13601	13600	9
13600	13601	13602	13606	9
13599	13598	13609	13610	9
13599	13598	13609	10542	9
13599	13598	13597	13602	9
13599	13598	13597	13605	9
13599	13600	13607	13608	9
13599	13600	13607	9856	9
13599	13600	13601	13602	9
13599	13600	13601	13604	9
13597	13598	13609	13610	9
13597	13598	13609	10542	9
13597	13598	13599	13603	9
13597	13602	13601	13604	9
13601	13600	13607	13608	9
13601	13600	13607	9856	9
13601	13600	13599	13603	9
13601	13602	13597	13605	9
13605	13597	13602	13606	9
13604	13601	13602	13606	9
13610	13609	10542	10532	9
13610	13609	10542	10544	9
13608	13607	9856	9846	9
13608	13607	9856	9858	9
10621	10620	10619	10630	9
10624	10620	10619	10630	9
10623	10618	10619	10630	9
10626	10618	10619	10630	9
10630	9534	9524	9527	9
10630	9534	9524	9523	9
10619	10620	10621	10628	9
10624	10620	10621	10628	9
10623	10622	10621	10628	9
10625	10622	10621	10628	9
10628	10638	10632	10635	9
10628	10638	10632	10633	9
10619	10630	9534	9524	9
10619	10630	9534	9536	9
10619	10620	10621	10622	9
10619	10618	10623	10622	9
10619	10618	10623	10627	9
10621	10628	10638	10632	9
10621	10628	10638	10639	9
10618	10619	10620	10621	9
10618	10623	10622	10621	9
10621	10622	10623	10627	9
10620	10619	10630	10631	9
10620	10619	10630	9534	9
10620	10619	10618	10623	9
10620	10619	10618	10626	9
10620	10621	10628	10629	9
10620	10621	10628	10638	9
10620	10621	10622	10623	9
10620	10621	10622	10625	9
10618	10619	10630	10631	9
10618	10619	10630	9534	9
10618	10619	10620	10624	9
10618	10623	10622	10625	9
10622	10621	10628	10629	9
10622	10621	10628	10638	9
10622	10621	10620	10624	9
10622	10623	10618	10626	9
10626	10618	10623	10627	9
10625	10622	10623	10627	9
10631	10630	9534	9524	9
10631	10630	9534	9536	9
10629	10628	10638	10632	9
10629	10628	10638	10639	9
4351	4350	4349	4360	9
4354	4350	4349	4360	9
4353	4348	4349	4360	9
4356	4348	4349	4360	9
4360	11113	11103	11102	9
4360	11113	11103	11106	9
4349	4350	4351	4358	9
4354	4350	4351	4358	9
4353	4352	4351	4358	9
4355	4352	4351	4358	9
4358	4368	4362	4365	9
4358	4368	4362	4363	9
4349	4360	11113	11103	9
4349	4360	11113	11115	9
4349	4350	4351	4352	9
4349	4348	4353	4352	9
4349	4348	4353	4357	9
4351	4358	4368	4362	9
4351	4358	4368	4369	9
4348	4349	4350	4351	9
4348	4353	4352	4351	9
4351	4352	4353	4357	9
4350	4349	4360	4361	9
4350	4349	4360	11113	9
4350	4349	4348	4353	9
4350	4349	4348	4356	9
4350	4351	4358	4359	9
4350	4351	4358	4368	9
4350	4351	4352	4353	9
4350	4351	4352	4355	9
4348	4349	4360	4361	9
4348	4349	4360	11113	9
4348	4349	4350	4354	9
4348	4353	4352	4355	9
4352	4351	4358	4359	9
4352	4351	4358	4368	9
4352	4351	4350	4354	9
4352	4353	4348	4356	9
4356	4348	4353	4357	9
4355	4352	4353	4357	9
4361	4360	11113	11103	9
4361	4360	11113	11115	9
4359	4358	4368	4362	9
4359	4358	4368	4369	9
2489	2488	2487	2498	9
2492	2488	2487	2498	9
2491	2486	2487	2498	9
2494	2486	2487	2498	9
2470	2469	2475	2498	9
2472	2469	2475	2498	9
2487	2488	2489	2496	9
2492	2488	2489	2496	9
2491	2490	2489	2496	9
2493	2490	2489	2496	9
2496	4592	4582	4585	9
2496	4592	4582	4581	9
2469	2475	2498	2487	9
2476	2475	2498	2487	9
2487	2488	2489	2490	9
2487	2486	2491	2490	9
2487	2486	2491	2495	9
2489	2496	4592	4582	9
2489	2496	4592	4594	9
2486	2487	2488	2489	9
2486	2491	2490	2489	9
2489	2490	2491	2495	9
2488	2487	2498	2499	9
2475	2498	2487	2488	9
2488	2487	2486	2491	9
2488	2487	2486	2494	9
2488	2489	2496	2497	9
2488	2489	2496	4592	9
2488	2489	2490	2491	9
2488	2489	2490	2493	9
2486	2487	2498	2499	9
2475	2498	2487	2486	9
2486	2487	2488	2492	9
2486	2491	2490	2493	9
2490	2489	2496	2497	9
2490	2489	2496	4592	9
2490	2489	2488	2492	9
2490	2491	2486	2494	9
2494	2486	2491	2495	9
2493	2490	2491	2495	9
2469	2475	2498	2499	9
2476	2475	2498	2499	9
2497	2496	4592	4582	9
2497	2496	4592	4594	9
12690	12689	12688	12699	9
12693	12689	12688	12699	9
12692	12687	12688	12699	9
12695	12687	12688	12699	9
12699	6514	6507	6506	9
12699	6514	6507	6508	9
12688	12689	12690	12697	9
12693	12689	12690	12697	9
12692	12691	12690	12697	9
12694	12691	12690	12697	9
12697	7491	7481	7484	9
12697	7491	7481	7480	9
12688	12699	6514	6507	9
12688	12699	6514	6516	9
12688	12689	12690	12691	9
12688	12687	12692	12691	9
12688	12687	12692	12696	9
12690	12697	7491	7481	9
12690	12697	7491	7493	9
12687	12688	12689	12690	9
12687	12692	12691	12690	9
12690	12691	12692	12696	9
12689	12688	12699	12700	9
12689	12688	12699	6514	9
12689	12688	12687	12692	9
12689	12688	12687	12695	9
12689	12690	12697	12698	9
12689	12690	12697	7491	9
12689	12690	12691	12692	9
12689	12690	12691	12694	9
12687	12688	12699	12700	9
12687	12688	12699	6514	9
12687	12688	12689	12693	9
12687	12692	12691	12694	9
12691	12690	12697	12698	9
12691	12690	12697	7491	9
12691	12690	12689	12693	9
12691	12692	12687	12695	9
12695	12687	12692	12696	9
12694	12691	12692	12696	9
12700	12699	6514	6507	9
12700	12699	6514	6516	9
12698	12697	7491	7481	9
12698	12697	7491	7493	9
866	865	864	875	9
869	865	864	875	9
868	863	864	875	9
871	863	864	875	9
849	846	852	875	9
847	846	852	875	9
864	865	866	873	9
869	865	866	873	9
868	867	866	873	9
870	867	866	873	9
873	6276	6270	6273	9
873	6276	6270	6271	9
846	852	875	864	9
853	852	875	864	9
864	865	866	867	9
864	863	868	867	9
864	863	868	872	9
866	873	6276	6270	9
866	873	6276	6277	9
863	864	865	866	9
863	868	867	866	9
866	867	868	872	9
865	864	875	876	9
852	875	864	865	9
865	864	863	868	9
865	864	863	871	9
865	866	873	874	9
865	866	873	6276	9
865	866	867	868	9
865	866	867	870	9
863	864	875	876	9
852	875	864	863	9
863	864	865	869	9
863	868	867	870	9
867	866	873	874	9
867	866	873	6276	9
867	866	865	869	9
867	868	863	871	9
871	863	868	872	9
870	867	868	872	9
846	852	875	876	9
853	852	875	876	9
874	873	6276	6270	9
874	873	6276	6277	9
5354	5353	5352	5363	9
5357	5353	5352	5363	9
5356	5351	5352	5363	9
5359	5351	5352	5363	9
5363	10060	10050	10053	9
5363	10060	10050	10049	9
5352	5353	5354	5361	9
5357	5353	5354	5361	9
5356	5355	5354	5361	9
5358	5355	5354	5361	9
5361	5371	5365	5368	9
5361	5371	5365	5366	9
5352	5363	10060	10050	9
5352	5363	10060	10062	9
5352	5353	5354	5355	9
5352	5351	5356	5355	9
5352	5351	5356	5360	9
5354	5361	5371	5365	9
5354	5361	5371	5372	9
5351	5352	5353	5354	9
5351	5356	5355	5354	9
5354	5355	5356	5360	9
5353	5352	5363	5364	9
5353	5352	5363	10060	9
5353	5352	5351	5356	9
5353	5352	5351	5359	9
5353	5354	5361	5362	9
5353	5354	5361	5371	9
5353	5354	5355	5356	9
5353	5354	5355	5358	9
5351	5352	5363	5364	9
5351	5352	5363	10060	9
5351	5352	5353	5357	9
5351	5356	5355	5358	9
5355	5354	5361	5362	9
5355	5354	5361	5371	9
5355	5354	5353	5357	9
5355	5356	5351	5359	9
5359	5351	5356	5360	9
5358	5355	5356	5360	9
5364	5363	10060	10050	9
5364	5363	10060	10062	9
5362	5361	5371	5365	9
5362	5361	5371	5372	9
5848	5849	5850	5857	9
5853	5849	5850	5857	9
5852	5851	5850	5857	9
5854	5851	5850	5857	9
5857	5867	5861	5862	9
5857	5867	5861	5864	9
5850	5849	5848	5859	9
5853	5849	5848	5859	9
5852	5847	5848	5859	9
5855	5847	5848	5859	9
5859	5926	5920	5923	9
5859	5926	5920	5921	9
5850	5857	5867	5861	9
5850	5857	5867	5868	9
5850	5849	5848	5847	9
5850	5851	5852	5847	9
5850	5851	5852	5856	9
5848	5859	5926	5920	9
5848	5859	5926	5927	9
5851	5850	5849	5848	9
5851	5852	5847	5848	9
5848	5847	5852	5856	9
5849	5850	5857	5858	9
5849	5850	5857	5867	9
5849	5850	5851	5852	9
5849	5850	5851	5854	9
5849	5848	5859	5860	9
5849	5848	5859	5926	9
5849	5848	5847	5852	9
5849	5848	5847	5855	9
5851	5850	5857	5858	9
5851	5850	5857	5867	9
5851	5850	5849	5853	9
5851	5852	5847	5855	9
5847	5848	5859	5860	9
5847	5848	5859	5926	9
5847	5848	5849	5853	9
5847	5852	5851	5854	9
5854	5851	5852	5856	9
5855	5847	5852	5856	9
5858	5857	5867	5861	9
5858	5857	5867	5868	9
5860	5859	5926	5920	9
5860	5859	5926	5927	9
11318	11317	11316	11327	9
11321	11317	11316	11327	9
11320	11315	11316	11327	9
11323	11315	11316	11327	9
11327	6718	6711	6712	9
11327	6718	6711	6710	9
11316	11317	11318	11325	9
11321	11317	11318	11325	9
11320	11319	11318	11325	9
11322	11319	11318	11325	9
11325	4098	4088	4087	9
11325	4098	4088	4091	9
11316	11327	6718	6711	9
11316	11327	6718	6720	9
11316	11317	11318	11319	9
11316	11315	11320	11319	9
11316	11315	11320	11324	9
11318	11325	4098	4088	9
11318	11325	4098	4100	9
11315	11316	11317	11318	9
11315	11320	11319	11318	9
11318	11319	11320	11324	9
11317	11316	11327	11328	9
11317	11316	11327	6718	9
11317	11316	11315	11320	9
11317	11316	11315	11323	9
11317	11318	11325	11326	9
11317	11318	11325	4098	9
11317	11318	11319	11320	9
11317	11318	11319	11322	9
11315	11316	11327	11328	9
11315	11316	11327	6718	9
11315	11316	11317	11321	9
11315	11320	11319	11322	9
11319	11318	11325	11326	9
11319	11318	11325	4098	9
11319	11318	11317	11321	9
11319	11320	11315	11323	9
11323	11315	11320	11324	9
11322	11319	11320	11324	9
11328	11327	6718	6711	9
11328	11327	6718	6720	9
11326	11325	4098	4088	9
11326	11325	4098	4100	9
3423	3422	3421	3432	9
3426	3422	3421	3432	9
3425	3420	3421	3432	9
3428	3420	3421	3432	9
3421	3422	3423	3430	9
3426	3422	3423	3430	9
3425	3424	3423	3430	9
3427	3424	3423	3430	9
3430	9446	9439	9438	9
3430	9446	9439	9440	9
3421	3422	3423	3424	9
3421	3420	3425	3424	9
3421	3420	3425	3429	9
3423	3430	9446	9439	9
3423	3430	9446	9448	9
3420	3421	3422	3423	9
3420	3425	3424	3423	9
3423	3424	3425	3429	9
3422	3421	3432	3433	9
3422	3421	3432	3434	9
3422	3421	3420	3425	9
3422	3421	3420	3428	9
3422	3423	3430	3431	9
3422	3423	3430	9446	9
3422	3423	3424	3425	9
3422	3423	3424	3427	9
3420	3421	3432	3433	9
3420	3421	3432	3434	9
3420	3421	3422	3426	9
3420	3425	3424	3427	9
3424	3423	3430	3431	9
3424	3423	3430	9446	9
3424	3423	3422	3426	9
3424	3425	3420	3428	9
3428	3420	3425	3429	9
3427	3424	3425	3429	9
3431	3430	9446	9439	9
3431	3430	9446	9448	9
2132	2131	2130	2141	9
2135	2131	2130	2141	9
2134	2129	2130	2141	9
2137	2129	2130	2141	9
2113	2112	2118	2141	9
2115	2112	2118	2141	9
2130	2131	2132	2139	9
2135	2131	2132	2139	9
2134	2133	2132	2139	9
2136	2133	2132	2139	9
2139	9257	9250	9249	9
2139	9257	9250	9251	9
2112	2118	2141	2130	9
2119	2118	2141	2130	9
2130	2131	2132	2133	9
2130	2129	2134	2133	9
2130	2129	2134	2138	9
2132	2139	9257	9250	9
2132	2139	9257	9259	9
2129	2130	2131	2132	9
2129	2134	2133	2132	9
2132	2133	2134	2138	9
2131	2130	2141	2142	9
2118	2141	2130	2131	9
2131	2130	2129	2134	9
2131	2130	2129	2137	9
2131	2132	2139	2140	9
2131	2132	2139	9257	9
2131	2132	2133	2134	9
2131	2132	2133	2136	9
2129	2130	2141	2142	9
2118	2141	2130	2129	9
2129	2130	2131	2135	9
2129	2134	2133	2136	9
2133	2132	2139	2140	9
2133	2132	2139	9257	9
2133	2132	2131	2135	9
2133	2134	2129	2137	9
2137	2129	2134	2138	9
2136	2133	2134	2138	9
2112	2118	2141	2142	9
2119	2118	2141	2142	9
2140	2139	9257	9250	9
2140	2139	9257	9259	9
3738	3737	3736	3747	9
3741	3737	3736	3747	9
3740	3735	3736	3747	9
3743	3735	3736	3747	9
3736	3737	3738	3745	9
3741	3737	3738	3745	9
3740	3739	3738	3745	9
3742	3739	3738	3745	9
3745	11157	11147	11146	9
3745	11157	11147	11150	9
3736	3737	3738	3739	9
3736	3735	3740	3739	9
3736	3735	3740	3744	9
3738	3745	11157	11147	9
3738	3745	11157	11159	9
3735	3736	3737	3738	9
3735	3740	3739	3738	9
3738	3739	3740	3744	9
3737	3736	3747	3749	9
3737	3736	3747	3748	9
3737	3736	3735	3740	9
3737	3736	3735	3743	9
3737	3738	3745	3746	9
3737	3738	3745	11157	9
3737	3738	3739	3740	9
3737	3738	3739	3742	9
3735	3736	3747	3749	9
3735	3736	3747	3748	9
3735	3736	3737	3741	9
3735	3740	3739	3742	9
3739	3738	3745	3746	9
3739	3738	3745	11157	9
3739	3738	3737	3741	9
3739	3740	3735	3743	9
3743	3735	3740	3744	9
3742	3739	3740	3744	9
3746	3745	11157	11147	9
3746	3745	11157	11159	9
8987	8986	8985	8996	9
8990	8986	8985	8996	9
8989	8984	8985	8996	9
8992	8984	8985	8996	9
8996	9004	8998	8999	9
8996	9004	8998	9001	9
8985	8986	8987	8994	9
8990	8986	8987	8994	9
8989	8988	8987	8994	9
8991	8988	8987	8994	9
8994	6538	6532	6533	9
8994	6538	6532	6535	9
8985	8996	9004	8998	9
8985	8996	9004	9005	9
8985	8986	8987	8988	9
8985	8984	8989	8988	9
8985	8984	8989	8993	9
8987	8994	6538	6532	9
8987	8994	6538	6539	9
8984	8985	8986	8987	9
8984	8989	8988	8987	9
8987	8988	8989	8993	9
8986	8985	8996	8997	9
8986	8985	8996	9004	9
8986	8985	8984	8989	9
8986	8985	8984	8992	9
8986	8987	8994	8995	9
8986	8987	8994	6538	9
8986	8987	8988	8989	9
8986	8987	8988	8991	9
8984	8985	8996	8997	9
8984	8985	8996	9004	9
8984	8985	8986	8990	9
8984	8989	8988	8991	9
8988	8987	8994	8995	9
8988	8987	8994	6538	9
8988	8987	8986	8990	9
8988	8989	8984	8992	9
8992	8984	8989	8993	9
8991	8988	8989	8993	9
8997	8996	9004	8998	9
8997	8996	9004	9005	9
8995	8994	6538	6532	9
8995	8994	6538	6539	9
1730	1729	1728	1739	9
1733	1729	1728	1739	9
1732	1727	1728	1739	9
1735	1727	1728	1739	9
1739	8024	8018	8021	9
1739	8024	8018	8019	9
1728	1729	1730	1737	9
1733	1729	1730	1737	9
1732	1731	1730	1737	9
1734	1731	1730	1737	9
1711	1710	1716	1737	9
1713	1710	1716	1737	9
1728	1739	8024	8018	9
1728	1739	8024	8025	9
1728	1729	1730	1731	9
1728	1727	1732	1731	9
1728	1727	1732	1736	9
1710	1716	1737	1730	9
1717	1716	1737	1730	9
1727	1728	1729	1730	9
1727	1732	1731	1730	9
1730	1731	1732	1736	9
1729	1728	1739	1740	9
1729	1728	1739	8024	9
1729	1728	1727	1732	9
1729	1728	1727	1735	9
1729	1730	1737	1738	9
1716	1737	1730	1729	9
1729	1730	1731	1732	9
1729	1730	1731	1734	9
1727	1728	1739	1740	9
1727	1728	1739	8024	9
1727	1728	1729	1733	9
1727	1732	1731	1734	9
1731	1730	1737	1738	9
1716	1737	1730	1731	9
1731	1730	1729	1733	9
1731	1732	1727	1735	9
1735	1727	1732	1736	9
1734	1731	1732	1736	9
1740	1739	8024	8018	9
1740	1739	8024	8025	9
1710	1716	1737	1738	9
1717	1716	1737	1738	9
8532	8533	8534	8541	9
8537	8533	8534	8541	9
8536	8535	8534	8541	9
8538	8535	8534	8541	9
8541	8551	8545	8546	9
8541	8551	8545	8548	9
8534	8533	8532	8543	9
8537	8533	8532	8543	9
8536	8531	8532	8543	9
8539	8531	8532	8543	9
8543	5406	5396	5399	9
8543	5406	5396	5395	9
8534	8541	8551	8545	9
8534	8541	8551	8552	9
8531	8532	8533	8534	9
8531	8536	8535	8534	9
8534	8535	8536	8540	9
8532	8543	5406	5396	9
8532	8543	5406	5408	9
8532	8533	8534	8535	9
8532	8531	8536	8535	9
8532	8531	8536	8540	9
8533	8534	8541	8542	9
8533	8534	8541	8551	9
8533	8534	8535	8536	9
8533	8534	8535	8538	9
8533	8532	8543	8544	9
8533	8532	8543	5406	9
8533	8532	8531	8536	9
8533	8532	8531	8539	9
8535	8534	8541	8542	9
8535	8534	8541	8551	9
8535	8534	8533	8537	9
8535	8536	8531	8539	9
8531	8532	8543	8544	9
8531	8532	8543	5406	9
8531	8532	8533	8537	9
8531	8536	8535	8538	9
8538	8535	8536	8540	9
8539	8531	8536	8540	9
8542	8541	8551	8545	9
8542	8541	8551	8552	9
8544	8543	5406	5396	9
8544	8543	5406	5408	9
12116	12115	12114	12125	9
12119	12115	12114	12125	9
12118	12113	12114	12125	9
12121	12113	12114	12125	9
12125	11053	11046	11045	9
12125	11053	11046	11047	9
12114	12115	12116	12123	9
12119	12115	12116	12123	9
12118	12117	12116	12123	9
12120	12117	12116	12123	9
12123	5565	5558	5557	9
12123	5565	5558	5559	9
12114	12125	11053	11046	9
12114	12125	11053	11055	9
12114	12115	12116	12117	9
12114	12113	12118	12117	9
12114	12113	12118	12122	9
12116	12123	5565	5558	9
12116	12123	5565	5567	9
12113	12114	12115	12116	9
12113	12118	12117	12116	9
12116	12117	12118	12122	9
12115	12114	12125	12126	9
12115	12114	12125	11053	9
12115	12114	12113	12118	9
12115	12114	12113	12121	9
12115	12116	12123	12124	9
12115	12116	12123	5565	9
12115	12116	12117	12118	9
12115	12116	12117	12120	9
12113	12114	12125	12126	9
12113	12114	12125	11053	9
12113	12114	12115	12119	9
12113	12118	12117	12120	9
12117	12116	12123	12124	9
12117	12116	12123	5565	9
12117	12116	12115	12119	9
12117	12118	12113	12121	9
12121	12113	12118	12122	9
12120	12117	12118	12122	9
12126	12125	11053	11046	9
12126	12125	11053	11055	9
12124	12123	5565	5558	9
12124	12123	5565	5567	9
11584	11583	11582	11593	9
11587	11583	11582	11593	9
11586	11581	11582	11593	9
11589	11581	11582	11593	9
11593	11141	11134	11135	9
11593	11141	11134	11133	9
11582	11583	11584	11591	9
11587	11583	11584	11591	9
11586	11585	11584	11591	9
11588	11585	11584	11591	9
11591	4562	4555	4554	9
11591	4562	4555	4556	9
11582	11593	11141	11134	9
11582	11593	11141	11143	9
11582	11583	11584	11585	9
11582	11581	11586	11585	9
11582	11581	11586	11590	9
11584	11591	4562	4555	9
11584	11591	4562	4564	9
11581	11582	11583	11584	9
11581	11586	11585	11584	9
11584	11585	11586	11590	9
11583	11582	11593	11594	9
11583	11582	11593	11141	9
11583	11582	11581	11586	9
11583	11582	11581	11589	9
11583	11584	11591	11592	9
11583	11584	11591	4562	9
11583	11584	11585	11586	9
11583	11584	11585	11588	9
11581	11582	11593	11594	9
11581	11582	11593	11141	9
11581	11582	11583	11587	9
11581	11586	11585	11588	9
11585	11584	11591	11592	9
11585	11584	11591	4562	9
11585	11584	11583	11587	9
11585	11586	11581	11589	9
11589	11581	11586	11590	9
11588	11585	11586	11590	9
11594	11593	11141	11134	9
11594	11593	11141	11143	9
11592	11591	4562	4555	9
11592	11591	4562	4564	9
13110	13109	13108	13119	9
13113	13109	13108	13119	9
13112	13107	13108	13119	9
13115	13107	13108	13119	9
13119	7854	7847	7848	9
13119	7854	7847	7846	9
13108	13109	13110	13117	9
13113	13109	13110	13117	9
13112	13111	13110	13117	9
13114	13111	13110	13117	9
13117	8863	8856	8855	9
13117	8863	8856	8857	9
13108	13119	7854	7847	9
13108	13119	7854	7856	9
13108	13109	13110	13111	9
13108	13107	13112	13111	9
13108	13107	13112	13116	9
13110	13117	8863	8856	9
13110	13117	8863	8865	9
13107	13108	13109	13110	9
13107	13112	13111	13110	9
13110	13111	13112	13116	9
13109	13108	13119	13120	9
13109	13108	13119	7854	9
13109	13108	13107	13112	9
13109	13108	13107	13115	9
13109	13110	13117	13118	9
13109	13110	13117	8863	9
13109	13110	13111	13112	9
13109	13110	13111	13114	9
13107	13108	13119	13120	9
13107	13108	13119	7854	9
13107	13108	13109	13113	9
13107	13112	13111	13114	9
13111	13110	13117	13118	9
13111	13110	13117	8863	9
13111	13110	13109	13113	9
13111	13112	13107	13115	9
13115	13107	13112	13116	9
13114	13111	13112	13116	9
13120	13119	7854	7847	9
13120	13119	7854	7856	9
13118	13117	8863	8856	9
13118	13117	8863	8865	9
2688	2687	2686	2697	9
2691	2687	2686	2697	9
2690	2685	2686	2697	9
2693	2685	2686	2697	9
2686	2687	2688	2695	9
2691	2687	2688	2695	9
2690	2689	2688	2695	9
2692	2689	2688	2695	9
2695	4383	4377	4378	9
2695	4383	4377	4380	9
2686	2687	2688	2689	9
2686	2685	2690	2689	9
2686	2685	2690	2694	9
2688	2695	4383	4377	9
2688	2695	4383	4384	9
2685	2686	2687	2688	9
2685	2690	2689	2688	9
2688	2689	2690	2694	9
2687	2686	2697	2698	9
2687	2686	2697	2699	9
2687	2686	2685	2690	9
2687	2686	2685	2693	9
2687	2688	2695	2696	9
2687	2688	2695	4383	9
2687	2688	2689	2690	9
2687	2688	2689	2692	9
2685	2686	2697	2698	9
2685	2686	2697	2699	9
2685	2686	2687	2691	9
2685	2690	2689	2692	9
2689	2688	2695	2696	9
2689	2688	2695	4383	9
2689	2688	2687	2691	9
2689	2690	2685	2693	9
2693	2685	2690	2694	9
2692	2689	2690	2694	9
2696	2695	4383	4377	9
2696	2695	4383	4384	9
6084	6083	6082	6093	9
6087	6083	6082	6093	9
6086	6081	6082	6093	9
6089	6081	6082	6093	9
6093	7578	7571	7572	9
6093	7578	7571	7570	9
6082	6083	6084	6091	9
6087	6083	6084	6091	9
6086	6085	6084	6091	9
6088	6085	6084	6091	9
6091	6106	6099	6100	9
6091	6106	6099	6098	9
6082	6093	7578	7571	9
6082	6093	7578	7580	9
6082	6083	6084	6085	9
6082	6081	6086	6085	9
6082	6081	6086	6090	9
6084	6091	6106	6099	9
6084	6091	6106	6108	9
6081	6082	6083	6084	9
6081	6086	6085	6084	9
6084	6085	6086	6090	9
6083	6082	6093	6094	9
6083	6082	6093	7578	9
6083	6082	6081	6086	9
6083	6082	6081	6089	9
6083	6084	6091	6092	9
6083	6084	6091	6106	9
6083	6084	6085	6086	9
6083	6084	6085	6088	9
6081	6082	6093	6094	9
6081	6082	6093	7578	9
6081	6082	6083	6087	9
6081	6086	6085	6088	9
6085	6084	6091	6092	9
6085	6084	6091	6106	9
6085	6084	6083	6087	9
6085	6086	6081	6089	9
6089	6081	6086	6090	9
6088	6085	6086	6090	9
6094	6093	7578	7571	9
6094	6093	7578	7580	9
6092	6091	6106	6099	9
6092	6091	6106	6108	9
13642	13641	13640	13651	9
13645	13641	13640	13651	9
13644	13639	13640	13651	9
13647	13639	13640	13651	9
13651	9972	9965	9966	9
13651	9972	9965	9964	9
13640	13641	13642	13649	9
13645	13641	13642	13649	9
13644	13643	13642	13649	9
13646	13643	13642	13649	9
13649	10336	10326	10325	9
13649	10336	10326	10329	9
13640	13651	9972	9965	9
13640	13651	9972	9974	9
13640	13641	13642	13643	9
13640	13639	13644	13643	9
13640	13639	13644	13648	9
13642	13649	10336	10326	9
13642	13649	10336	10338	9
13639	13640	13641	13642	9
13639	13644	13643	13642	9
13642	13643	13644	13648	9
13641	13640	13651	13652	9
13641	13640	13651	9972	9
13641	13640	13639	13644	9
13641	13640	13639	13647	9
13641	13642	13649	13650	9
13641	13642	13649	10336	9
13641	13642	13643	13644	9
13641	13642	13643	13646	9
13639	13640	13651	13652	9
13639	13640	13651	9972	9
13639	13640	13641	13645	9
13639	13644	13643	13646	9
13643	13642	13649	13650	9
13643	13642	13649	10336	9
13643	13642	13641	13645	9
13643	13644	13639	13647	9
13647	13639	13644	13648	9
13646	13643	13644	13648	9
13652	13651	9972	9965	9
13652	13651	9972	9974	9
13650	13649	10336	10326	9
13650	13649	10336	10338	9
3183	3182	3181	3192	9
3186	3182	3181	3192	9
3185	3180	3181	3192	9
3188	3180	3181	3192	9
3181	3182	3183	3190	9
3186	3182	3183	3190	9
3185	3184	3183	3190	9
3187	3184	3183	3190	9
3190	8425	8418	8419	9
3190	8425	8418	8417	9
3181	3182	3183	3184	9
3181	3180	3185	3184	9
3181	3180	3185	3189	9
3183	3190	8425	8418	9
3183	3190	8425	8427	9
3180	3181	3182	3183	9
3180	3185	3184	3183	9
3183	3184	3185	3189	9
3182	3181	3192	3193	9
3182	3181	3192	3194	9
3182	3181	3180	3185	9
3182	3181	3180	3188	9
3182	3183	3190	3191	9
3182	3183	3190	8425	9
3182	3183	3184	3185	9
3182	3183	3184	3187	9
3180	3181	3192	3193	9
3180	3181	3192	3194	9
3180	3181	3182	3186	9
3180	3185	3184	3187	9
3184	3183	3190	3191	9
3184	3183	3190	8425	9
3184	3183	3182	3186	9
3184	3185	3180	3188	9
3188	3180	3185	3189	9
3187	3184	3185	3189	9
3191	3190	8425	8418	9
3191	3190	8425	8427	9
3136	3137	3138	3145	9
3141	3137	3138	3145	9
3140	3139	3138	3145	9
3142	3139	3138	3145	9
3145	8102	8095	8096	9
3145	8102	8095	8094	9
3138	3137	3136	3147	9
3141	3137	3136	3147	9
3140	3135	3136	3147	9
3143	3135	3136	3147	9
3138	3145	8102	8095	9
3138	3145	8102	8104	9
3135	3136	3137	3138	9
3135	3140	3139	3138	9
3138	3139	3140	3144	9
3136	3137	3138	3139	9
3136	3135	3140	3139	9
3136	3135	3140	3144	9
3137	3138	3145	3146	9
3137	3138	3145	8102	9
3137	3138	3139	3140	9
3137	3138	3139	3142	9
3137	3136	3147	3149	9
3137	3136	3147	3148	9
3137	3136	3135	3140	9
3137	3136	3135	3143	9
3139	3138	3145	3146	9
3139	3138	3145	8102	9
3139	3138	3137	3141	9
3139	3140	3135	3143	9
3135	3136	3147	3149	9
3135	3136	3147	3148	9
3135	3136	3137	3141	9
3135	3140	3139	3142	9
3142	3139	3140	3144	9
3143	3135	3140	3144	9
3146	3145	8102	8095	9
3146	3145	8102	8104	9
13684	13683	13682	13693	9
13687	13683	13682	13693	9
13686	13681	13682	13693	9
13689	13681	13682	13693	9
13693	11039	11029	11028	9
13693	11039	11029	11032	9
13682	13683	13684	13691	9
13687	13683	13684	13691	9
13686	13685	13684	13691	9
13688	13685	13684	13691	9
13691	10498	10488	10491	9
13691	10498	10488	10487	9
13682	13693	11039	11029	9
13682	13693	11039	11041	9
13682	13683	13684	13685	9
13682	13681	13686	13685	9
13682	13681	13686	13690	9
13684	13691	10498	10488	9
13684	13691	10498	10500	9
13681	13682	13683	13684	9
13681	13686	13685	13684	9
13684	13685	13686	13690	9
13683	13682	13693	13694	9
13683	13682	13693	11039	9
13683	13682	13681	13686	9
13683	13682	13681	13689	9
13683	13684	13691	13692	9
13683	13684	13691	10498	9
13683	13684	13685	13686	9
13683	13684	13685	13688	9
13681	13682	13693	13694	9
13681	13682	13693	11039	9
13681	13682	13683	13687	9
13681	13686	13685	13688	9
13685	13684	13691	13692	9
13685	13684	13691	10498	9
13685	13684	13683	13687	9
13685	13686	13681	13689	9
13689	13681	13686	13690	9
13688	13685	13686	13690	9
13694	13693	11039	11029	9
13694	13693	11039	11041	9
13692	13691	10498	10488	9
13692	13691	10498	10500	9
3211	3212	3213	3220	9
3216	3212	3213	3220	9
3215	3214	3213	3220	9
3217	3214	3213	3220	9
3220	8572	8562	8561	9
3220	8572	8562	8565	9
3213	3212	3211	3222	9
3216	3212	3211	3222	9
3215	3210	3211	3222	9
3218	3210	3211	3222	9
3213	3220	8572	8562	9
3213	3220	8572	8574	9
3210	3211	3212	3213	9
3210	3215	3214	3213	9
3213	3214	3215	3219	9
3211	3212	3213	3214	9
3211	3210	3215	3214	9
3211	3210	3215	3219	9
3212	3213	3220	3221	9
3212	3213	3220	8572	9
3212	3213	3214	3215	9
3212	3213	3214	3217	9
3212	3211	3222	3224	9
3212	3211	3222	3223	9
3212	3211	3210	3215	9
3212	3211	3210	3218	9
3214	3213	3220	3221	9
3214	3213	3220	8572	9
3214	3213	3212	3216	9
3214	3215	3210	3218	9
3210	3211	3222	3224	9
3210	3211	3222	3223	9
3210	3211	3212	3216	9
3210	3215	3214	3217	9
3217	3214	3215	3219	9
3218	3210	3215	3219	9
3221	3220	8572	8562	9
3221	3220	8572	8574	9
11016	11015	11014	11025	9
11019	11015	11014	11025	9
11018	11013	11014	11025	9
11021	11013	11014	11025	9
11025	11033	11027	11028	9
11025	11033	11027	11030	9
11014	11015	11016	11023	9
11019	11015	11016	11023	9
11018	11017	11016	11023	9
11020	11017	11016	11023	9
1097	1096	1103	11023	9
1095	1096	1103	11023	9
11014	11025	11033	11027	9
11014	11025	11033	11034	9
11014	11015	11016	11017	9
11014	11013	11018	11017	9
11014	11013	11018	11022	9
1096	1103	11023	11016	9
1105	1103	11023	11016	9
11013	11014	11015	11016	9
11013	11018	11017	11016	9
11016	11017	11018	11022	9
11015	11014	11025	11026	9
11015	11014	11025	11033	9
11015	11014	11013	11018	9
11015	11014	11013	11021	9
11015	11016	11023	11024	9
1103	11023	11016	11015	9
11015	11016	11017	11018	9
11015	11016	11017	11020	9
11013	11014	11025	11026	9
11013	11014	11025	11033	9
11013	11014	11015	11019	9
11013	11018	11017	11020	9
11017	11016	11023	11024	9
1103	11023	11016	11017	9
11017	11016	11015	11019	9
11017	11018	11013	11021	9
11021	11013	11018	11022	9
11020	11017	11018	11022	9
11026	11025	11033	11027	9
11026	11025	11033	11034	9
1096	1103	11023	11024	9
1105	1103	11023	11024	9
12592	12591	12590	12601	9
12595	12591	12590	12601	9
12594	12589	12590	12601	9
12597	12589	12590	12601	9
12601	7213	7206	7205	9
12601	7213	7206	7207	9
12590	12591	12592	12599	9
12595	12591	12592	12599	9
12594	12593	12592	12599	9
12596	12593	12592	12599	9
12599	6310	6303	6302	9
12599	6310	6303	6304	9
12590	12601	7213	7206	9
12590	12601	7213	7215	9
12590	12591	12592	12593	9
12590	12589	12594	12593	9
12590	12589	12594	12598	9
12592	12599	6310	6303	9
12592	12599	6310	6312	9
12589	12590	12591	12592	9
12589	12594	12593	12592	9
12592	12593	12594	12598	9
12591	12590	12601	12602	9
12591	12590	12601	7213	9
12591	12590	12589	12594	9
12591	12590	12589	12597	9
12591	12592	12599	12600	9
12591	12592	12599	6310	9
12591	12592	12593	12594	9
12591	12592	12593	12596	9
12589	12590	12601	12602	9
12589	12590	12601	7213	9
12589	12590	12591	12595	9
12589	12594	12593	12596	9
12593	12592	12599	12600	9
12593	12592	12599	6310	9
12593	12592	12591	12595	9
12593	12594	12589	12597	9
12597	12589	12594	12598	9
12596	12593	12594	12598	9
12602	12601	7213	7206	9
12602	12601	7213	7215	9
12600	12599	6310	6303	9
12600	12599	6310	6312	9
12074	12073	12072	12083	9
12077	12073	12072	12083	9
12076	12071	12072	12083	9
12079	12071	12072	12083	9
12083	5508	5498	5497	9
12083	5508	5498	5501	9
12072	12073	12074	12081	9
12077	12073	12074	12081	9
12076	12075	12074	12081	9
12078	12075	12074	12081	9
12081	9899	9892	9891	9
12081	9899	9892	9893	9
12072	12083	5508	5498	9
12072	12083	5508	5510	9
12072	12073	12074	12075	9
12072	12071	12076	12075	9
12072	12071	12076	12080	9
12074	12081	9899	9892	9
12074	12081	9899	9901	9
12071	12072	12073	12074	9
12071	12076	12075	12074	9
12074	12075	12076	12080	9
12073	12072	12083	12084	9
12073	12072	12083	5508	9
12073	12072	12071	12076	9
12073	12072	12071	12079	9
12073	12074	12081	12082	9
12073	12074	12081	9899	9
12073	12074	12075	12076	9
12073	12074	12075	12078	9
12071	12072	12083	12084	9
12071	12072	12083	5508	9
12071	12072	12073	12077	9
12071	12076	12075	12078	9
12075	12074	12081	12082	9
12075	12074	12081	9899	9
12075	12074	12073	12077	9
12075	12076	12071	12079	9
12079	12071	12076	12080	9
12078	12075	12076	12080	9
12084	12083	5508	5498	9
12084	12083	5508	5510	9
12082	12081	9899	9892	9
12082	12081	9899	9901	9
3258	3257	3256	3267	9
3261	3257	3256	3267	9
3260	3255	3256	3267	9
3263	3255	3256	3267	9
3256	3257	3258	3265	9
3261	3257	3258	3265	9
3260	3259	3258	3265	9
3262	3259	3258	3265	9
3265	8893	8883	8886	9
3265	8893	8883	8882	9
3256	3257	3258	3259	9
3256	3255	3260	3259	9
3256	3255	3260	3264	9
3258	3265	8893	8883	9
3258	3265	8893	8895	9
3255	3256	3257	3258	9
3255	3260	3259	3258	9
3258	3259	3260	3264	9
3257	3256	3267	3268	9
3257	3256	3267	3269	9
3257	3256	3255	3260	9
3257	3256	3255	3263	9
3257	3258	3265	3266	9
3257	3258	3265	8893	9
3257	3258	3259	3260	9
3257	3258	3259	3262	9
3255	3256	3267	3268	9
3255	3256	3267	3269	9
3255	3256	3257	3261	9
3255	3260	3259	3262	9
3259	3258	3265	3266	9
3259	3258	3265	8893	9
3259	3258	3257	3261	9
3259	3260	3255	3263	9
3263	3255	3260	3264	9
3262	3259	3260	3264	9
3266	3265	8893	8883	9
3266	3265	8893	8895	9
12858	12857	12856	12867	9
12861	12857	12856	12867	9
12860	12855	12856	12867	9
12863	12855	12856	12867	9
12867	9374	9364	9363	9
12867	9374	9364	9367	9
12856	12857	12858	12865	9
12861	12857	12858	12865	9
12860	12859	12858	12865	9
12862	12859	12858	12865	9
12865	7069	7059	7058	9
12865	7069	7059	7062	9
12856	12867	9374	9364	9
12856	12867	9374	9376	9
12856	12857	12858	12859	9
12856	12855	12860	12859	9
12856	12855	12860	12864	9
12858	12865	7069	7059	9
12858	12865	7069	7071	9
12855	12856	12857	12858	9
12855	12860	12859	12858	9
12858	12859	12860	12864	9
12857	12856	12867	12868	9
12857	12856	12867	9374	9
12857	12856	12855	12860	9
12857	12856	12855	12863	9
12857	12858	12865	12866	9
12857	12858	12865	7069	9
12857	12858	12859	12860	9
12857	12858	12859	12862	9
12855	12856	12867	12868	9
12855	12856	12867	9374	9
12855	12856	12857	12861	9
12855	12860	12859	12862	9
12859	12858	12865	12866	9
12859	12858	12865	7069	9
12859	12858	12857	12861	9
12859	12860	12855	12863	9
12863	12855	12860	12864	9
12862	12859	12860	12864	9
12868	12867	9374	9364	9
12868	12867	9374	9376	9
12866	12865	7069	7059	9
12866	12865	7069	7071	9
8167	8166	8165	8176	9
8170	8166	8165	8176	9
8169	8164	8165	8176	9
8172	8164	8165	8176	9
8176	8184	8178	8181	9
8176	8184	8178	8179	9
8165	8166	8167	8174	9
8170	8166	8167	8174	9
8169	8168	8167	8174	9
8171	8168	8167	8174	9
8174	9543	9537	9538	9
8174	9543	9537	9540	9
8165	8176	8184	8178	9
8165	8176	8184	8185	9
8165	8166	8167	8168	9
8165	8164	8169	8168	9
8165	8164	8169	8173	9
8167	8174	9543	9537	9
8167	8174	9543	9544	9
8164	8165	8166	8167	9
8164	8169	8168	8167	9
8167	8168	8169	8173	9
8166	8165	8176	8177	9
8166	8165	8176	8184	9
8166	8165	8164	8169	9
8166	8165	8164	8172	9
8166	8167	8174	8175	9
8166	8167	8174	9543	9
8166	8167	8168	8169	9
8166	8167	8168	8171	9
8164	8165	8176	8177	9
8164	8165	8176	8184	9
8164	8165	8166	8170	9
8164	8169	8168	8171	9
8168	8167	8174	8175	9
8168	8167	8174	9543	9
8168	8167	8166	8170	9
8168	8169	8164	8172	9
8172	8164	8169	8173	9
8171	8168	8169	8173	9
8177	8176	8184	8178	9
8177	8176	8184	8185	9
8175	8174	9543	9537	9
8175	8174	9543	9544	9
11568	11569	11570	11577	9
11573	11569	11570	11577	9
11572	11571	11570	11577	9
11574	11571	11570	11577	9
11577	5932	5922	5925	9
11577	5932	5922	5921	9
11570	11569	11568	11579	9
11573	11569	11568	11579	9
11572	11567	11568	11579	9
11575	11567	11568	11579	9
11579	4563	4553	4556	9
11579	4563	4553	4552	9
11570	11577	5932	5922	9
11570	11577	5932	5934	9
11570	11569	11568	11567	9
11570	11571	11572	11567	9
11570	11571	11572	11576	9
11568	11579	4563	4553	9
11568	11579	4563	4565	9
11571	11570	11569	11568	9
11571	11572	11567	11568	9
11568	11567	11572	11576	9
11569	11570	11577	11578	9
11569	11570	11577	5932	9
11569	11570	11571	11572	9
11569	11570	11571	11574	9
11569	11568	11579	11580	9
11569	11568	11579	4563	9
11569	11568	11567	11572	9
11569	11568	11567	11575	9
11571	11570	11577	11578	9
11571	11570	11577	5932	9
11571	11570	11569	11573	9
11571	11572	11567	11575	9
11567	11568	11579	11580	9
11567	11568	11579	4563	9
11567	11568	11569	11573	9
11567	11572	11571	11574	9
11574	11571	11572	11576	9
11575	11567	11572	11576	9
11578	11577	5932	5922	9
11578	11577	5932	5934	9
11580	11579	4563	4553	9
11580	11579	4563	4565	9
12270	12269	12268	12279	9
12273	12269	12268	12279	9
12272	12267	12268	12279	9
12275	12267	12268	12279	9
12279	5771	5761	5764	9
12279	5771	5761	5760	9
12268	12269	12270	12277	9
12273	12269	12270	12277	9
12272	12271	12270	12277	9
12274	12271	12270	12277	9
12277	6165	6155	6154	9
12277	6165	6155	6158	9
12268	12279	5771	5761	9
12268	12279	5771	5773	9
12268	12269	12270	12271	9
12268	12267	12272	12271	9
12268	12267	12272	12276	9
12270	12277	6165	6155	9
12270	12277	6165	6167	9
12267	12268	12269	12270	9
12267	12272	12271	12270	9
12270	12271	12272	12276	9
12269	12268	12279	12280	9
12269	12268	12279	5771	9
12269	12268	12267	12272	9
12269	12268	12267	12275	9
12269	12270	12277	12278	9
12269	12270	12277	6165	9
12269	12270	12271	12272	9
12269	12270	12271	12274	9
12267	12268	12279	12280	9
12267	12268	12279	5771	9
12267	12268	12269	12273	9
12267	12272	12271	12274	9
12271	12270	12277	12278	9
12271	12270	12277	6165	9
12271	12270	12269	12273	9
12271	12272	12267	12275	9
12275	12267	12272	12276	9
12274	12271	12272	12276	9
12280	12279	5771	5761	9
12280	12279	5771	5773	9
12278	12277	6165	6155	9
12278	12277	6165	6167	9
13544	13543	13542	13553	9
13547	13543	13542	13553	9
13546	13541	13542	13553	9
13549	13541	13542	13553	9
13553	9068	9061	9060	9
13553	9068	9061	9062	9
13542	13543	13544	13551	9
13547	13543	13544	13551	9
13546	13545	13544	13551	9
13548	13545	13544	13551	9
13551	10644	10634	10637	9
13551	10644	10634	10633	9
13542	13553	9068	9061	9
13542	13553	9068	9070	9
13542	13543	13544	13545	9
13542	13541	13546	13545	9
13542	13541	13546	13550	9
13544	13551	10644	10634	9
13544	13551	10644	10646	9
13541	13542	13543	13544	9
13541	13546	13545	13544	9
13544	13545	13546	13550	9
13543	13542	13553	13554	9
13543	13542	13553	9068	9
13543	13542	13541	13546	9
13543	13542	13541	13549	9
13543	13544	13551	13552	9
13543	13544	13551	10644	9
13543	13544	13545	13546	9
13543	13544	13545	13548	9
13541	13542	13553	13554	9
13541	13542	13553	9068	9
13541	13542	13543	13547	9
13541	13546	13545	13548	9
13545	13544	13551	13552	9
13545	13544	13551	10644	9
13545	13544	13543	13547	9
13545	13546	13541	13549	9
13549	13541	13546	13550	9
13548	13545	13546	13550	9
13554	13553	9068	9061	9
13554	13553	9068	9070	9
13552	13551	10644	10634	9
13552	13551	10644	10646	9
3016	3017	3018	3025	9
3021	3017	3018	3025	9
3020	3019	3018	3025	9
3022	3019	3018	3025	9
3025	7034	7028	7029	9
3025	7034	7028	7031	9
3018	3017	3016	3027	9
3021	3017	3016	3027	9
3020	3015	3016	3027	9
3023	3015	3016	3027	9
3018	3025	7034	7028	9
3018	3025	7034	7035	9
3015	3016	3017	3018	9
3015	3020	3019	3018	9
3018	3019	3020	3024	9
3016	3017	3018	3019	9
3016	3015	3020	3019	9
3016	3015	3020	3024	9
3017	3018	3025	3026	9
3017	3018	3025	7034	9
3017	3018	3019	3020	9
3017	3018	3019	3022	9
3017	3016	3027	3028	9
3017	3016	3027	3029	9
3017	3016	3015	3020	9
3017	3016	3015	3023	9
3019	3018	3025	3026	9
3019	3018	3025	7034	9
3019	3018	3017	3021	9
3019	3020	3015	3023	9
3015	3016	3027	3028	9
3015	3016	3027	3029	9
3015	3016	3017	3021	9
3015	3020	3019	3022	9
3022	3019	3020	3024	9
3023	3015	3020	3024	9
3026	3025	7034	7028	9
3026	3025	7034	7035	9
8680	8679	8678	8689	9
8683	8679	8678	8689	9
8682	8677	8678	8689	9
8685	8677	8678	8689	9
8689	5741	5734	5735	9
8689	5741	5734	5733	9
8678	8679	8680	8687	9
8683	8679	8680	8687	9
8682	8681	8680	8687	9
8684	8681	8680	8687	9
8687	8697	8691	8694	9
8687	8697	8691	8692	9
8678	8689	5741	5734	9
8678	8689	5741	5743	9
8678	8679	8680	8681	9
8678	8677	8682	8681	9
8678	8677	8682	8686	9
8680	8687	8697	8691	9
8680	8687	8697	8698	9
8677	8678	8679	8680	9
8677	8682	8681	8680	9
8680	8681	8682	8686	9
8679	8678	8689	8690	9
8679	8678	8689	5741	9
8679	8678	8677	8682	9
8679	8678	8677	8685	9
8679	8680	8687	8688	9
8679	8680	8687	8697	9
8679	8680	8681	8682	9
8679	8680	8681	8684	9
8677	8678	8689	8690	9
8677	8678	8689	5741	9
8677	8678	8679	8683	9
8677	8682	8681	8684	9
8681	8680	8687	8688	9
8681	8680	8687	8697	9
8681	8680	8679	8683	9
8681	8682	8677	8685	9
8685	8677	8682	8686	9
8684	8681	8682	8686	9
8690	8689	5741	5734	9
8690	8689	5741	5743	9
8688	8687	8697	8691	9
8688	8687	8697	8698	9
5704	5703	5702	5713	9
5707	5703	5702	5713	9
5706	5701	5702	5713	9
5709	5701	5702	5713	9
5713	5721	5715	5716	9
5713	5721	5715	5718	9
5702	5703	5704	5711	9
5707	5703	5704	5711	9
5706	5705	5704	5711	9
5708	5705	5704	5711	9
5711	4708	4698	4697	9
5711	4708	4698	4701	9
5702	5713	5721	5715	9
5702	5713	5721	5722	9
5702	5703	5704	5705	9
5702	5701	5706	5705	9
5702	5701	5706	5710	9
5704	5711	4708	4698	9
5704	5711	4708	4710	9
5701	5702	5703	5704	9
5701	5706	5705	5704	9
5704	5705	5706	5710	9
5703	5702	5713	5714	9
5703	5702	5713	5721	9
5703	5702	5701	5706	9
5703	5702	5701	5709	9
5703	5704	5711	5712	9
5703	5704	5711	4708	9
5703	5704	5705	5706	9
5703	5704	5705	5708	9
5701	5702	5713	5714	9
5701	5702	5713	5721	9
5701	5702	5703	5707	9
5701	5706	5705	5708	9
5705	5704	5711	5712	9
5705	5704	5711	4708	9
5705	5704	5703	5707	9
5705	5706	5701	5709	9
5709	5701	5706	5710	9
5708	5705	5706	5710	9
5714	5713	5721	5715	9
5714	5713	5721	5722	9
5712	5711	4708	4698	9
5712	5711	4708	4710	9
1915	1914	1913	1924	9
1918	1914	1913	1924	9
1917	1912	1913	1924	9
1920	1912	1913	1924	9
1924	10745	10738	10739	9
1924	10745	10738	10737	9
1913	1914	1915	1922	9
1918	1914	1915	1922	9
1917	1916	1915	1922	9
1919	1916	1915	1922	9
1896	1895	1901	1922	9
1898	1895	1901	1922	9
1913	1924	10745	10738	9
1913	1924	10745	10747	9
1913	1914	1915	1916	9
1913	1912	1917	1916	9
1913	1912	1917	1921	9
1895	1901	1922	1915	9
1902	1901	1922	1915	9
1912	1913	1914	1915	9
1912	1917	1916	1915	9
1915	1916	1917	1921	9
1914	1913	1924	1925	9
1914	1913	1924	10745	9
1914	1913	1912	1917	9
1914	1913	1912	1920	9
1914	1915	1922	1923	9
1901	1922	1915	1914	9
1914	1915	1916	1917	9
1914	1915	1916	1919	9
1912	1913	1924	1925	9
1912	1913	1924	10745	9
1912	1913	1914	1918	9
1912	1917	1916	1919	9
1916	1915	1922	1923	9
1901	1922	1915	1916	9
1916	1915	1914	1918	9
1916	1917	1912	1920	9
1920	1912	1917	1921	9
1919	1916	1917	1921	9
1925	1924	10745	10738	9
1925	1924	10745	10747	9
1895	1901	1922	1923	9
1902	1901	1922	1923	9
6026	6025	6024	6035	9
6029	6025	6024	6035	9
6028	6023	6024	6035	9
6031	6023	6024	6035	9
6035	7223	7217	7218	9
6035	7223	7217	7220	9
6024	6025	6026	6033	9
6029	6025	6026	6033	9
6028	6027	6026	6033	9
6030	6027	6026	6033	9
6033	6043	6037	6040	9
6033	6043	6037	6038	9
6024	6035	7223	7217	9
6024	6035	7223	7224	9
6024	6025	6026	6027	9
6024	6023	6028	6027	9
6024	6023	6028	6032	9
6026	6033	6043	6037	9
6026	6033	6043	6044	9
6023	6024	6025	6026	9
6023	6028	6027	6026	9
6026	6027	6028	6032	9
6025	6024	6035	6036	9
6025	6024	6035	7223	9
6025	6024	6023	6028	9
6025	6024	6023	6031	9
6025	6026	6033	6034	9
6025	6026	6033	6043	9
6025	6026	6027	6028	9
6025	6026	6027	6030	9
6023	6024	6035	6036	9
6023	6024	6035	7223	9
6023	6024	6025	6029	9
6023	6028	6027	6030	9
6027	6026	6033	6034	9
6027	6026	6033	6043	9
6027	6026	6025	6029	9
6027	6028	6023	6031	9
6031	6023	6028	6032	9
6030	6027	6028	6032	9
6036	6035	7223	7217	9
6036	6035	7223	7224	9
6034	6033	6043	6037	9
6034	6033	6043	6044	9
13782	13781	13780	13791	9
13785	13781	13780	13791	9
13784	13779	13780	13791	9
13787	13779	13780	13791	9
634	633	640	13791	9
632	633	640	13791	9
13780	13781	13782	13789	9
13785	13781	13782	13789	9
13784	13783	13782	13789	9
13786	13783	13782	13789	9
1592	1591	1598	13789	9
1590	1591	1598	13789	9
633	640	13791	13780	9
642	640	13791	13780	9
13780	13781	13782	13783	9
13780	13779	13784	13783	9
13780	13779	13784	13788	9
1591	1598	13789	13782	9
1600	1598	13789	13782	9
13779	13780	13781	13782	9
13779	13784	13783	13782	9
13782	13783	13784	13788	9
13781	13780	13791	13792	9
640	13791	13780	13781	9
13781	13780	13779	13784	9
13781	13780	13779	13787	9
13781	13782	13789	13790	9
1598	13789	13782	13781	9
13781	13782	13783	13784	9
13781	13782	13783	13786	9
13779	13780	13791	13792	9
640	13791	13780	13779	9
13779	13780	13781	13785	9
13779	13784	13783	13786	9
13783	13782	13789	13790	9
1598	13789	13782	13783	9
13783	13782	13781	13785	9
13783	13784	13779	13787	9
13787	13779	13784	13788	9
13786	13783	13784	13788	9
633	640	13791	13792	9
642	640	13791	13792	9
1591	1598	13789	13790	9
1600	1598	13789	13790	9
2926	2927	2928	2935	9
2931	2927	2928	2935	9
2930	2929	2928	2935	9
2932	2929	2928	2935	9
2935	6543	6536	6535	9
2935	6543	6536	6537	9
2928	2927	2926	2937	9
2931	2927	2926	2937	9
2930	2925	2926	2937	9
2933	2925	2926	2937	9
2928	2935	6543	6536	9
2928	2935	6543	6545	9
2925	2926	2927	2928	9
2925	2930	2929	2928	9
2928	2929	2930	2934	9
2926	2927	2928	2929	9
2926	2925	2930	2929	9
2926	2925	2930	2934	9
2927	2928	2935	2936	9
2927	2928	2935	6543	9
2927	2928	2929	2930	9
2927	2928	2929	2932	9
2927	2926	2937	2939	9
2927	2926	2937	2938	9
2927	2926	2925	2930	9
2927	2926	2925	2933	9
2929	2928	2935	2936	9
2929	2928	2935	6543	9
2929	2928	2927	2931	9
2929	2930	2925	2933	9
2925	2926	2937	2939	9
2925	2926	2937	2938	9
2925	2926	2927	2931	9
2925	2930	2929	2932	9
2932	2929	2930	2934	9
2933	2925	2930	2934	9
2936	2935	6543	6536	9
2936	2935	6543	6545	9
9293	9292	9291	9302	9
9296	9292	9291	9302	9
9295	9290	9291	9302	9
9298	9290	9291	9302	9
9302	9310	9304	9307	9
9302	9310	9304	9305	9
9291	9292	9293	9300	9
9296	9292	9293	9300	9
9295	9294	9293	9300	9
9297	9294	9293	9300	9
9300	4673	4667	4668	9
9300	4673	4667	4670	9
9291	9302	9310	9304	9
9291	9302	9310	9311	9
9291	9292	9293	9294	9
9291	9290	9295	9294	9
9291	9290	9295	9299	9
9293	9300	4673	4667	9
9293	9300	4673	4674	9
9290	9291	9292	9293	9
9290	9295	9294	9293	9
9293	9294	9295	9299	9
9292	9291	9302	9303	9
9292	9291	9302	9310	9
9292	9291	9290	9295	9
9292	9291	9290	9298	9
9292	9293	9300	9301	9
9292	9293	9300	4673	9
9292	9293	9294	9295	9
9292	9293	9294	9297	9
9290	9291	9302	9303	9
9290	9291	9302	9310	9
9290	9291	9292	9296	9
9290	9295	9294	9297	9
9294	9293	9300	9301	9
9294	9293	9300	4673	9
9294	9293	9292	9296	9
9294	9295	9290	9298	9
9298	9290	9295	9299	9
9297	9294	9295	9299	9
9303	9302	9310	9304	9
9303	9302	9310	9311	9
9301	9300	4673	4667	9
9301	9300	4673	4674	9
5483	5484	5485	5492	9
5488	5484	5485	5492	9
5487	5486	5485	5492	9
5489	5486	5485	5492	9
5492	4955	4945	4944	9
5492	4955	4945	4948	9
5485	5484	5483	5494	9
5488	5484	5483	5494	9
5487	5482	5483	5494	9
5490	5482	5483	5494	9
5494	5502	5496	5497	9
5494	5502	5496	5499	9
5485	5492	4955	4945	9
5485	5492	4955	4957	9
5482	5483	5484	5485	9
5482	5487	5486	5485	9
5485	5486	5487	5491	9
5483	5494	5502	5496	9
5483	5494	5502	5503	9
5483	5484	5485	5486	9
5483	5482	5487	5486	9
5483	5482	5487	5491	9
5484	5485	5492	5493	9
5484	5485	5492	4955	9
5484	5485	5486	5487	9
5484	5485	5486	5489	9
5484	5483	5494	5495	9
5484	5483	5494	5502	9
5484	5483	5482	5487	9
5484	5483	5482	5490	9
5486	5485	5492	5493	9
5486	5485	5492	4955	9
5486	5485	5484	5488	9
5486	5487	5482	5490	9
5482	5483	5494	5495	9
5482	5483	5494	5502	9
5482	5483	5484	5488	9
5482	5487	5486	5489	9
5489	5486	5487	5491	9
5490	5482	5487	5491	9
5493	5492	4955	4945	9
5493	5492	4955	4957	9
5495	5494	5502	5496	9
5495	5494	5502	5503	9
13082	13081	13080	13091	9
13085	13081	13080	13091	9
13084	13079	13080	13091	9
13087	13079	13080	13091	9
13091	7709	7702	7701	9
13091	7709	7702	7703	9
13080	13081	13082	13089	9
13085	13081	13082	13089	9
13084	13083	13082	13089	9
13086	13083	13082	13089	9
13089	10804	10797	10798	9
13089	10804	10797	10796	9
13080	13091	7709	7702	9
13080	13091	7709	7711	9
13080	13081	13082	13083	9
13080	13079	13084	13083	9
13080	13079	13084	13088	9
13082	13089	10804	10797	9
13082	13089	10804	10806	9
13079	13080	13081	13082	9
13079	13084	13083	13082	9
13082	13083	13084	13088	9
13081	13080	13091	13092	9
13081	13080	13091	7709	9
13081	13080	13079	13084	9
13081	13080	13079	13087	9
13081	13082	13089	13090	9
13081	13082	13089	10804	9
13081	13082	13083	13084	9
13081	13082	13083	13086	9
13079	13080	13091	13092	9
13079	13080	13091	7709	9
13079	13080	13081	13085	9
13079	13084	13083	13086	9
13083	13082	13089	13090	9
13083	13082	13089	10804	9
13083	13082	13081	13085	9
13083	13084	13079	13087	9
13087	13079	13084	13088	9
13086	13083	13084	13088	9
13092	13091	7709	7702	9
13092	13091	7709	7711	9
13090	13089	10804	10797	9
13090	13089	10804	10806	9
12410	12409	12408	12419	9
12413	12409	12408	12419	9
12412	12407	12408	12419	9
12415	12407	12408	12419	9
12419	9373	9366	9367	9
12419	9373	9366	9365	9
12408	12409	12410	12417	9
12413	12409	12410	12417	9
12412	12411	12410	12417	9
12414	12411	12410	12417	9
12417	5976	5966	5969	9
12417	5976	5966	5965	9
12408	12419	9373	9366	9
12408	12419	9373	9375	9
12408	12409	12410	12411	9
12408	12407	12412	12411	9
12408	12407	12412	12416	9
12410	12417	5976	5966	9
12410	12417	5976	5978	9
12407	12408	12409	12410	9
12407	12412	12411	12410	9
12410	12411	12412	12416	9
12409	12408	12419	12420	9
12409	12408	12419	9373	9
12409	12408	12407	12412	9
12409	12408	12407	12415	9
12409	12410	12417	12418	9
12409	12410	12417	5976	9
12409	12410	12411	12412	9
12409	12410	12411	12414	9
12407	12408	12419	12420	9
12407	12408	12419	9373	9
12407	12408	12409	12413	9
12407	12412	12411	12414	9
12411	12410	12417	12418	9
12411	12410	12417	5976	9
12411	12410	12409	12413	9
12411	12412	12407	12415	9
12415	12407	12412	12416	9
12414	12411	12412	12416	9
12420	12419	9373	9366	9
12420	12419	9373	9375	9
12418	12417	5976	5966	9
12418	12417	5976	5978	9
10811	10810	10809	10820	9
10814	10810	10809	10820	9
10813	10808	10809	10820	9
10816	10808	10809	10820	9
10820	6975	6969	6972	9
10820	6975	6969	6970	9
10809	10810	10811	10818	9
10814	10810	10811	10818	9
10813	10812	10811	10818	9
10815	10812	10811	10818	9
10818	10828	10822	10823	9
10818	10828	10822	10825	9
10809	10820	6975	6969	9
10809	10820	6975	6976	9
10809	10810	10811	10812	9
10809	10808	10813	10812	9
10809	10808	10813	10817	9
10811	10818	10828	10822	9
10811	10818	10828	10829	9
10808	10809	10810	10811	9
10808	10813	10812	10811	9
10811	10812	10813	10817	9
10810	10809	10820	10821	9
10810	10809	10820	6975	9
10810	10809	10808	10813	9
10810	10809	10808	10816	9
10810	10811	10818	10819	9
10810	10811	10818	10828	9
10810	10811	10812	10813	9
10810	10811	10812	10815	9
10808	10809	10820	10821	9
10808	10809	10820	6975	9
10808	10809	10810	10814	9
10808	10813	10812	10815	9
10812	10811	10818	10819	9
10812	10811	10818	10828	9
10812	10811	10810	10814	9
10812	10813	10808	10816	9
10816	10808	10813	10817	9
10815	10812	10813	10817	9
10821	10820	6975	6969	9
10821	10820	6975	6976	9
10819	10818	10828	10822	9
10819	10818	10828	10829	9
2808	2807	2806	2817	9
2811	2807	2806	2817	9
2810	2805	2806	2817	9
2813	2805	2806	2817	9
2806	2807	2808	2815	9
2811	2807	2808	2815	9
2810	2809	2808	2815	9
2812	2809	2808	2815	9
2815	5405	5398	5397	9
2815	5405	5398	5399	9
2806	2807	2808	2809	9
2806	2805	2810	2809	9
2806	2805	2810	2814	9
2808	2815	5405	5398	9
2808	2815	5405	5407	9
2805	2806	2807	2808	9
2805	2810	2809	2808	9
2808	2809	2810	2814	9
2807	2806	2817	2819	9
2807	2806	2817	2818	9
2807	2806	2805	2810	9
2807	2806	2805	2813	9
2807	2808	2815	2816	9
2807	2808	2815	5405	9
2807	2808	2809	2810	9
2807	2808	2809	2812	9
2805	2806	2817	2819	9
2805	2806	2817	2818	9
2805	2806	2807	2811	9
2805	2810	2809	2812	9
2809	2808	2815	2816	9
2809	2808	2815	5405	9
2809	2808	2807	2811	9
2809	2810	2805	2813	9
2813	2805	2810	2814	9
2812	2809	2810	2814	9
2816	2815	5405	5398	9
2816	2815	5405	5407	9
13474	13473	13472	13483	9
13477	13473	13472	13483	9
13476	13471	13472	13483	9
13479	13471	13472	13483	9
13483	9826	9819	9820	9
13483	9826	9819	9818	9
13472	13473	13474	13481	9
13477	13473	13474	13481	9
13476	13475	13474	13481	9
13478	13475	13474	13481	9
13481	8835	8825	8824	9
13481	8835	8825	8828	9
13472	13483	9826	9819	9
13472	13483	9826	9828	9
13472	13473	13474	13475	9
13472	13471	13476	13475	9
13472	13471	13476	13480	9
13474	13481	8835	8825	9
13474	13481	8835	8837	9
13471	13472	13473	13474	9
13471	13476	13475	13474	9
13474	13475	13476	13480	9
13473	13472	13483	13484	9
13473	13472	13483	9826	9
13473	13472	13471	13476	9
13473	13472	13471	13479	9
13473	13474	13481	13482	9
13473	13474	13481	8835	9
13473	13474	13475	13476	9
13473	13474	13475	13478	9
13471	13472	13483	13484	9
13471	13472	13483	9826	9
13471	13472	13473	13477	9
13471	13476	13475	13478	9
13475	13474	13481	13482	9
13475	13474	13481	8835	9
13475	13474	13473	13477	9
13475	13476	13471	13479	9
13479	13471	13476	13480	9
13478	13475	13476	13480	9
13484	13483	9826	9819	9
13484	13483	9826	9828	9
13482	13481	8835	8825	9
13482	13481	8835	8837	9
9729	9730	9731	9738	9
9734	9730	9731	9738	9
9733	9732	9731	9738	9
9735	9732	9731	9738	9
9738	9798	9788	9791	9
9738	9798	9788	9787	9
9731	9730	9729	9740	9
9734	9730	9729	9740	9
9733	9728	9729	9740	9
9736	9728	9729	9740	9
9740	9748	9742	9743	9
9740	9748	9742	9745	9
9731	9738	9798	9788	9
9731	9738	9798	9800	9
9728	9729	9730	9731	9
9728	9733	9732	9731	9
9731	9732	9733	9737	9
9729	9740	9748	9742	9
9729	9740	9748	9749	9
9729	9730	9731	9732	9
9729	9728	9733	9732	9
9729	9728	9733	9737	9
9730	9731	9738	9739	9
9730	9731	9738	9798	9
9730	9731	9732	9733	9
9730	9731	9732	9735	9
9730	9729	9740	9741	9
9730	9729	9740	9748	9
9730	9729	9728	9733	9
9730	9729	9728	9736	9
9732	9731	9738	9739	9
9732	9731	9738	9798	9
9732	9731	9730	9734	9
9732	9733	9728	9736	9
9728	9729	9740	9741	9
9728	9729	9740	9748	9
9728	9729	9730	9734	9
9728	9733	9732	9735	9
9735	9732	9733	9737	9
9736	9728	9733	9737	9
9739	9738	9798	9788	9
9739	9738	9798	9800	9
9741	9740	9748	9742	9
9741	9740	9748	9749	9
11234	11233	11232	11243	9
11237	11233	11232	11243	9
11236	11231	11232	11243	9
11239	11231	11232	11243	9
11243	3895	3885	3888	9
11243	3895	3885	3884	9
11232	11233	11234	11241	9
11237	11233	11234	11241	9
11236	11235	11234	11241	9
11238	11235	11234	11241	9
11241	6588	6578	6577	9
11241	6588	6578	6581	9
11232	11243	3895	3885	9
11232	11243	3895	3897	9
11232	11233	11234	11235	9
11232	11231	11236	11235	9
11232	11231	11236	11240	9
11234	11241	6588	6578	9
11234	11241	6588	6590	9
11231	11232	11233	11234	9
11231	11236	11235	11234	9
11234	11235	11236	11240	9
11233	11232	11243	11244	9
11233	11232	11243	3895	9
11233	11232	11231	11236	9
11233	11232	11231	11239	9
11233	11234	11241	11242	9
11233	11234	11241	6588	9
11233	11234	11235	11236	9
11233	11234	11235	11238	9
11231	11232	11243	11244	9
11231	11232	11243	3895	9
11231	11232	11233	11237	9
11231	11236	11235	11238	9
11235	11234	11241	11242	9
11235	11234	11241	6588	9
11235	11234	11233	11237	9
11235	11236	11231	11239	9
11239	11231	11236	11240	9
11238	11235	11236	11240	9
11244	11243	3895	3885	9
11244	11243	3895	3897	9
11242	11241	6588	6578	9
11242	11241	6588	6590	9
11498	11499	11500	11507	9
11503	11499	11500	11507	9
11502	11501	11500	11507	9
11504	11501	11500	11507	9
11507	9884	9877	9876	9
11507	9884	9877	9878	9
11500	11499	11498	11509	9
11503	11499	11498	11509	9
11502	11497	11498	11509	9
11505	11497	11498	11509	9
11509	4374	4364	4367	9
11509	4374	4364	4363	9
11500	11507	9884	9877	9
11500	11507	9884	9886	9
11500	11499	11498	11497	9
11500	11501	11502	11497	9
11500	11501	11502	11506	9
11498	11509	4374	4364	9
11498	11509	4374	4376	9
11501	11500	11499	11498	9
11501	11502	11497	11498	9
11498	11497	11502	11506	9
11499	11500	11507	11508	9
11499	11500	11507	9884	9
11499	11500	11501	11502	9
11499	11500	11501	11504	9
11499	11498	11509	11510	9
11499	11498	11509	4374	9
11499	11498	11497	11502	9
11499	11498	11497	11505	9
11501	11500	11507	11508	9
11501	11500	11507	9884	9
11501	11500	11499	11503	9
11501	11502	11497	11505	9
11497	11498	11509	11510	9
11497	11498	11509	4374	9
11497	11498	11499	11503	9
11497	11502	11501	11504	9
11504	11501	11502	11506	9
11505	11497	11502	11506	9
11508	11507	9884	9877	9
11508	11507	9884	9886	9
11510	11509	4374	4364	9
11510	11509	4374	4376	9
2658	2657	2656	2667	9
2661	2657	2656	2667	9
2660	2655	2656	2667	9
2663	2655	2656	2667	9
2656	2657	2658	2665	9
2661	2657	2658	2665	9
2660	2659	2658	2665	9
2662	2659	2658	2665	9
2665	4272	4262	4261	9
2665	4272	4262	4265	9
2656	2657	2658	2659	9
2656	2655	2660	2659	9
2656	2655	2660	2664	9
2658	2665	4272	4262	9
2658	2665	4272	4274	9
2655	2656	2657	2658	9
2655	2660	2659	2658	9
2658	2659	2660	2664	9
2657	2656	2667	2669	9
2657	2656	2667	2668	9
2657	2656	2655	2660	9
2657	2656	2655	2663	9
2657	2658	2665	2666	9
2657	2658	2665	4272	9
2657	2658	2659	2660	9
2657	2658	2659	2662	9
2655	2656	2667	2669	9
2655	2656	2667	2668	9
2655	2656	2657	2661	9
2655	2660	2659	2662	9
2659	2658	2665	2666	9
2659	2658	2665	4272	9
2659	2658	2657	2661	9
2659	2660	2655	2663	9
2663	2655	2660	2664	9
2662	2659	2660	2664	9
2666	2665	4272	4262	9
2666	2665	4272	4274	9
3123	3122	3121	3132	9
3126	3122	3121	3132	9
3125	3120	3121	3132	9
3128	3120	3121	3132	9
3121	3122	3123	3130	9
3126	3122	3123	3130	9
3125	3124	3123	3130	9
3127	3124	3123	3130	9
3130	8087	8080	8081	9
3130	8087	8080	8079	9
3121	3122	3123	3124	9
3121	3120	3125	3124	9
3121	3120	3125	3129	9
3123	3130	8087	8080	9
3123	3130	8087	8089	9
3120	3121	3122	3123	9
3120	3125	3124	3123	9
3123	3124	3125	3129	9
3122	3121	3132	3133	9
3122	3121	3132	3134	9
3122	3121	3120	3125	9
3122	3121	3120	3128	9
3122	3123	3130	3131	9
3122	3123	3130	8087	9
3122	3123	3124	3125	9
3122	3123	3124	3127	9
3120	3121	3132	3133	9
3120	3121	3132	3134	9
3120	3121	3122	3126	9
3120	3125	3124	3127	9
3124	3123	3130	3131	9
3124	3123	3130	8087	9
3124	3123	3122	3126	9
3124	3125	3120	3128	9
3128	3120	3125	3129	9
3127	3124	3125	3129	9
3131	3130	8087	8080	9
3131	3130	8087	8089	9
13320	13319	13318	13329	9
13323	13319	13318	13329	9
13322	13317	13318	13329	9
13325	13317	13318	13329	9
13329	8279	8269	8268	9
13329	8279	8269	8272	9
13318	13319	13320	13327	9
13323	13319	13320	13327	9
13322	13321	13320	13327	9
13324	13321	13320	13327	9
13327	9141	9134	9133	9
13327	9141	9134	9135	9
13318	13329	8279	8269	9
13318	13329	8279	8281	9
13318	13319	13320	13321	9
13318	13317	13322	13321	9
13318	13317	13322	13326	9
13320	13327	9141	9134	9
13320	13327	9141	9143	9
13317	13318	13319	13320	9
13317	13322	13321	13320	9
13320	13321	13322	13326	9
13319	13318	13329	13330	9
13319	13318	13329	8279	9
13319	13318	13317	13322	9
13319	13318	13317	13325	9
13319	13320	13327	13328	9
13319	13320	13327	9141	9
13319	13320	13321	13322	9
13319	13320	13321	13324	9
13317	13318	13329	13330	9
13317	13318	13329	8279	9
13317	13318	13319	13323	9
13317	13322	13321	13324	9
13321	13320	13327	13328	9
13321	13320	13327	9141	9
13321	13320	13319	13323	9
13321	13322	13317	13325	9
13325	13317	13322	13326	9
13324	13321	13322	13326	9
13330	13329	8279	8269	9
13330	13329	8279	8281	9
13328	13327	9141	9134	9
13328	13327	9141	9143	9
5777	5776	5775	5786	9
5780	5776	5775	5786	9
5779	5774	5775	5786	9
5782	5774	5775	5786	9
5786	7257	7250	7251	9
5786	7257	7250	7249	9
5775	5776	5777	5784	9
5780	5776	5777	5784	9
5779	5778	5777	5784	9
5781	5778	5777	5784	9
5784	5794	5788	5789	9
5784	5794	5788	5791	9
5775	5786	7257	7250	9
5775	5786	7257	7259	9
5775	5776	5777	5778	9
5775	5774	5779	5778	9
5775	5774	5779	5783	9
5777	5784	5794	5788	9
5777	5784	5794	5795	9
5774	5775	5776	5777	9
5774	5779	5778	5777	9
5777	5778	5779	5783	9
5776	5775	5786	5787	9
5776	5775	5786	7257	9
5776	5775	5774	5779	9
5776	5775	5774	5782	9
5776	5777	5784	5785	9
5776	5777	5784	5794	9
5776	5777	5778	5779	9
5776	5777	5778	5781	9
5774	5775	5786	5787	9
5774	5775	5786	7257	9
5774	5775	5776	5780	9
5774	5779	5778	5781	9
5778	5777	5784	5785	9
5778	5777	5784	5794	9
5778	5777	5776	5780	9
5778	5779	5774	5782	9
5782	5774	5779	5783	9
5781	5778	5779	5783	9
5787	5786	7257	7250	9
5787	5786	7257	7259	9
5785	5784	5794	5788	9
5785	5784	5794	5795	9
9775	9774	9773	9784	9
9778	9774	9773	9784	9
9777	9772	9773	9784	9
9780	9772	9773	9784	9
9784	9792	9786	9789	9
9784	9792	9786	9787	9
9773	9774	9775	9782	9
9778	9774	9775	9782	9
9777	9776	9775	9782	9
9779	9776	9775	9782	9
9782	8454	8447	8448	9
9782	8454	8447	8446	9
9773	9784	9792	9786	9
9773	9784	9792	9793	9
9773	9774	9775	9776	9
9773	9772	9777	9776	9
9773	9772	9777	9781	9
9775	9782	8454	8447	9
9775	9782	8454	8456	9
9772	9773	9774	9775	9
9772	9777	9776	9775	9
9775	9776	9777	9781	9
9774	9773	9784	9785	9
9774	9773	9784	9792	9
9774	9773	9772	9777	9
9774	9773	9772	9780	9
9774	9775	9782	9783	9
9774	9775	9782	8454	9
9774	9775	9776	9777	9
9774	9775	9776	9779	9
9772	9773	9784	9785	9
9772	9773	9784	9792	9
9772	9773	9774	9778	9
9772	9777	9776	9779	9
9776	9775	9782	9783	9
9776	9775	9782	8454	9
9776	9775	9774	9778	9
9776	9777	9772	9780	9
9780	9772	9777	9781	9
9779	9776	9777	9781	9
9785	9784	9792	9786	9
9785	9784	9792	9793	9
9783	9782	8454	8447	9
9783	9782	8454	8456	9
10284	10283	10282	10293	9
10287	10283	10282	10293	9
10286	10281	10282	10293	9
10289	10281	10282	10293	9
10293	10301	10295	10296	9
10293	10301	10295	10298	9
10282	10283	10284	10291	9
10287	10283	10284	10291	9
10286	10285	10284	10291	9
10288	10285	10284	10291	9
10291	8029	8022	8021	9
10291	8029	8022	8023	9
10282	10293	10301	10295	9
10282	10293	10301	10302	9
10282	10283	10284	10285	9
10282	10281	10286	10285	9
10282	10281	10286	10290	9
10284	10291	8029	8022	9
10284	10291	8029	8031	9
10281	10282	10283	10284	9
10281	10286	10285	10284	9
10284	10285	10286	10290	9
10283	10282	10293	10294	9
10283	10282	10293	10301	9
10283	10282	10281	10286	9
10283	10282	10281	10289	9
10283	10284	10291	10292	9
10283	10284	10291	8029	9
10283	10284	10285	10286	9
10283	10284	10285	10288	9
10281	10282	10293	10294	9
10281	10282	10293	10301	9
10281	10282	10283	10287	9
10281	10286	10285	10288	9
10285	10284	10291	10292	9
10285	10284	10291	8029	9
10285	10284	10283	10287	9
10285	10286	10281	10289	9
10289	10281	10286	10290	9
10288	10285	10286	10290	9
10294	10293	10301	10295	9
10294	10293	10301	10302	9
10292	10291	8029	8022	9
10292	10291	8029	8031	9
12942	12941	12940	12951	9
12945	12941	12940	12951	9
12944	12939	12940	12951	9
12947	12939	12940	12951	9
12951	7389	7379	7382	9
12951	7389	7379	7378	9
12940	12941	12942	12949	9
12945	12941	12942	12949	9
12944	12943	12942	12949	9
12946	12943	12942	12949	9
12949	10001	9994	9995	9
12949	10001	9994	9993	9
12940	12951	7389	7379	9
12940	12951	7389	7391	9
12940	12941	12942	12943	9
12940	12939	12944	12943	9
12940	12939	12944	12948	9
12942	12949	10001	9994	9
12942	12949	10001	10003	9
12939	12940	12941	12942	9
12939	12944	12943	12942	9
12942	12943	12944	12948	9
12941	12940	12951	12952	9
12941	12940	12951	7389	9
12941	12940	12939	12944	9
12941	12940	12939	12947	9
12941	12942	12949	12950	9
12941	12942	12949	10001	9
12941	12942	12943	12944	9
12941	12942	12943	12946	9
12939	12940	12951	12952	9
12939	12940	12951	7389	9
12939	12940	12941	12945	9
12939	12944	12943	12946	9
12943	12942	12949	12950	9
12943	12942	12949	10001	9
12943	12942	12941	12945	9
12943	12944	12939	12947	9
12947	12939	12944	12948	9
12946	12943	12944	12948	9
12952	12951	7389	7379	9
12952	12951	7389	7391	9
12950	12949	10001	9994	9
12950	12949	10001	10003	9
3031	3032	3033	3040	9
3036	3032	3033	3040	9
3035	3034	3033	3040	9
3037	3034	3033	3040	9
3040	7315	7308	7307	9
3040	7315	7308	7309	9
3033	3032	3031	3042	9
3036	3032	3031	3042	9
3035	3030	3031	3042	9
3038	3030	3031	3042	9
3033	3040	7315	7308	9
3033	3040	7315	7317	9
3030	3031	3032	3033	9
3030	3035	3034	3033	9
3033	3034	3035	3039	9
3031	3032	3033	3034	9
3031	3030	3035	3034	9
3031	3030	3035	3039	9
3032	3033	3040	3041	9
3032	3033	3040	7315	9
3032	3033	3034	3035	9
3032	3033	3034	3037	9
3032	3031	3042	3044	9
3032	3031	3042	3043	9
3032	3031	3030	3035	9
3032	3031	3030	3038	9
3034	3033	3040	3041	9
3034	3033	3040	7315	9
3034	3033	3032	3036	9
3034	3035	3030	3038	9
3030	3031	3042	3044	9
3030	3031	3042	3043	9
3030	3031	3032	3036	9
3030	3035	3034	3037	9
3037	3034	3035	3039	9
3038	3030	3035	3039	9
3041	3040	7315	7308	9
3041	3040	7315	7317	9
10209	10210	10211	10218	9
10214	10210	10211	10218	9
10213	10212	10211	10218	9
10215	10212	10211	10218	9
10218	8892	8885	8884	9
10218	8892	8885	8886	9
10211	10210	10209	10220	9
10214	10210	10209	10220	9
10213	10208	10209	10220	9
10216	10208	10209	10220	9
10220	10228	10222	10223	9
10220	10228	10222	10225	9
10211	10218	8892	8885	9
10211	10218	8892	8894	9
10208	10209	10210	10211	9
10208	10213	10212	10211	9
10211	10212	10213	10217	9
10209	10220	10228	10222	9
10209	10220	10228	10229	9
10209	10210	10211	10212	9
10209	10208	10213	10212	9
10209	10208	10213	10217	9
10210	10211	10218	10219	9
10210	10211	10218	8892	9
10210	10211	10212	10213	9
10210	10211	10212	10215	9
10210	10209	10220	10221	9
10210	10209	10220	10228	9
10210	10209	10208	10213	9
10210	10209	10208	10216	9
10212	10211	10218	10219	9
10212	10211	10218	8892	9
10212	10211	10210	10214	9
10212	10213	10208	10216	9
10208	10209	10220	10221	9
10208	10209	10220	10228	9
10208	10209	10210	10214	9
10208	10213	10212	10215	9
10215	10212	10213	10217	9
10216	10208	10213	10217	9
10219	10218	8892	8885	9
10219	10218	8892	8894	9
10221	10220	10228	10222	9
10221	10220	10228	10229	9
2868	2867	2866	2877	9
2871	2867	2866	2877	9
2870	2865	2866	2877	9
2873	2865	2866	2877	9
2866	2867	2868	2875	9
2871	2867	2868	2875	9
2870	2869	2868	2875	9
2872	2869	2868	2875	9
2875	5736	5730	5731	9
2875	5736	5730	5733	9
2866	2867	2868	2869	9
2866	2865	2870	2869	9
2866	2865	2870	2874	9
2868	2875	5736	5730	9
2868	2875	5736	5737	9
2865	2866	2867	2868	9
2865	2870	2869	2868	9
2868	2869	2870	2874	9
2867	2866	2877	2878	9
2867	2866	2877	2879	9
2867	2866	2865	2870	9
2867	2866	2865	2873	9
2867	2868	2875	2876	9
2867	2868	2875	5736	9
2867	2868	2869	2870	9
2867	2868	2869	2872	9
2865	2866	2877	2878	9
2865	2866	2877	2879	9
2865	2866	2867	2871	9
2865	2870	2869	2872	9
2869	2868	2875	2876	9
2869	2868	2875	5736	9
2869	2868	2867	2871	9
2869	2870	2865	2873	9
2873	2865	2870	2874	9
2872	2869	2870	2874	9
2876	2875	5736	5730	9
2876	2875	5736	5737	9
4830	4829	4828	4839	9
4833	4829	4828	4839	9
4832	4827	4828	4839	9
4835	4827	4828	4839	9
4839	4862	4856	4859	9
4839	4862	4856	4857	9
4828	4829	4830	4837	9
4833	4829	4830	4837	9
4832	4831	4830	4837	9
4834	4831	4830	4837	9
4837	4847	4841	4844	9
4837	4847	4841	4842	9
4828	4839	4862	4856	9
4828	4839	4862	4863	9
4828	4829	4830	4831	9
4828	4827	4832	4831	9
4828	4827	4832	4836	9
4830	4837	4847	4841	9
4830	4837	4847	4848	9
4827	4828	4829	4830	9
4827	4832	4831	4830	9
4830	4831	4832	4836	9
4829	4828	4839	4840	9
4829	4828	4839	4862	9
4829	4828	4827	4832	9
4829	4828	4827	4835	9
4829	4830	4837	4838	9
4829	4830	4837	4847	9
4829	4830	4831	4832	9
4829	4830	4831	4834	9
4827	4828	4839	4840	9
4827	4828	4839	4862	9
4827	4828	4829	4833	9
4827	4832	4831	4834	9
4831	4830	4837	4838	9
4831	4830	4837	4847	9
4831	4830	4829	4833	9
4831	4832	4827	4835	9
4835	4827	4832	4836	9
4834	4831	4832	4836	9
4840	4839	4862	4856	9
4840	4839	4862	4863	9
4838	4837	4847	4841	9
4838	4837	4847	4848	9
6288	6287	6286	6297	9
6291	6287	6286	6297	9
6290	6285	6286	6297	9
6293	6285	6286	6297	9
6297	6485	6478	6477	9
6297	6485	6478	6479	9
6286	6287	6288	6295	9
6291	6287	6288	6295	9
6290	6289	6288	6295	9
6292	6289	6288	6295	9
6295	6305	6299	6302	9
6295	6305	6299	6300	9
6286	6297	6485	6478	9
6286	6297	6485	6487	9
6286	6287	6288	6289	9
6286	6285	6290	6289	9
6286	6285	6290	6294	9
6288	6295	6305	6299	9
6288	6295	6305	6306	9
6285	6286	6287	6288	9
6285	6290	6289	6288	9
6288	6289	6290	6294	9
6287	6286	6297	6298	9
6287	6286	6297	6485	9
6287	6286	6285	6290	9
6287	6286	6285	6293	9
6287	6288	6295	6296	9
6287	6288	6295	6305	9
6287	6288	6289	6290	9
6287	6288	6289	6292	9
6285	6286	6297	6298	9
6285	6286	6297	6485	9
6285	6286	6287	6291	9
6285	6290	6289	6292	9
6289	6288	6295	6296	9
6289	6288	6295	6305	9
6289	6288	6287	6291	9
6289	6290	6285	6293	9
6293	6285	6290	6294	9
6292	6289	6290	6294	9
6298	6297	6485	6478	9
6298	6297	6485	6487	9
6296	6295	6305	6299	9
6296	6295	6305	6306	9
12606	12605	12604	12615	9
12609	12605	12604	12615	9
12608	12603	12604	12615	9
12611	12603	12604	12615	9
1806	1803	1809	12615	9
1804	1803	1809	12615	9
12604	12605	12606	12613	9
12609	12605	12606	12613	9
12608	12607	12606	12613	9
12610	12607	12606	12613	9
12613	6325	6318	6317	9
12613	6325	6318	6319	9
1803	1809	12615	12604	9
1810	1809	12615	12604	9
12604	12605	12606	12607	9
12604	12603	12608	12607	9
12604	12603	12608	12612	9
12606	12613	6325	6318	9
12606	12613	6325	6327	9
12603	12604	12605	12606	9
12603	12608	12607	12606	9
12606	12607	12608	12612	9
12605	12604	12615	12616	9
1809	12615	12604	12605	9
12605	12604	12603	12608	9
12605	12604	12603	12611	9
12605	12606	12613	12614	9
12605	12606	12613	6325	9
12605	12606	12607	12608	9
12605	12606	12607	12610	9
12603	12604	12615	12616	9
1809	12615	12604	12603	9
12603	12604	12605	12609	9
12603	12608	12607	12610	9
12607	12606	12613	12614	9
12607	12606	12613	6325	9
12607	12606	12605	12609	9
12607	12608	12603	12611	9
12611	12603	12608	12612	9
12610	12607	12608	12612	9
1803	1809	12615	12616	9
1810	1809	12615	12616	9
12614	12613	6325	6318	9
12614	12613	6325	6327	9
5748	5747	5746	5757	9
5751	5747	5746	5757	9
5750	5745	5746	5757	9
5753	5745	5746	5757	9
5757	9855	9848	9849	9
5757	9855	9848	9847	9
5746	5747	5748	5755	9
5751	5747	5748	5755	9
5750	5749	5748	5755	9
5752	5749	5748	5755	9
5755	5765	5759	5762	9
5755	5765	5759	5760	9
5746	5757	9855	9848	9
5746	5757	9855	9857	9
5746	5747	5748	5749	9
5746	5745	5750	5749	9
5746	5745	5750	5754	9
5748	5755	5765	5759	9
5748	5755	5765	5766	9
5745	5746	5747	5748	9
5745	5750	5749	5748	9
5748	5749	5750	5754	9
5747	5746	5757	5758	9
5747	5746	5757	9855	9
5747	5746	5745	5750	9
5747	5746	5745	5753	9
5747	5748	5755	5756	9
5747	5748	5755	5765	9
5747	5748	5749	5750	9
5747	5748	5749	5752	9
5745	5746	5757	5758	9
5745	5746	5757	9855	9
5745	5746	5747	5751	9
5745	5750	5749	5752	9
5749	5748	5755	5756	9
5749	5748	5755	5765	9
5749	5748	5747	5751	9
5749	5750	5745	5753	9
5753	5745	5750	5754	9
5752	5749	5750	5754	9
5758	5757	9855	9848	9
5758	5757	9855	9857	9
5756	5755	5765	5759	9
5756	5755	5765	5766	9
8461	8460	8459	8470	9
8464	8460	8459	8470	9
8463	8458	8459	8470	9
8466	8458	8459	8470	9
8470	5463	5456	5455	9
8470	5463	5456	5457	9
8459	8460	8461	8468	9
8464	8460	8461	8468	9
8463	8462	8461	8468	9
8465	8462	8461	8468	9
8468	8478	8472	8475	9
8468	8478	8472	8473	9
8459	8470	5463	5456	9
8459	8470	5463	5465	9
8459	8460	8461	8462	9
8459	8458	8463	8462	9
8459	8458	8463	8467	9
8461	8468	8478	8472	9
8461	8468	8478	8479	9
8458	8459	8460	8461	9
8458	8463	8462	8461	9
8461	8462	8463	8467	9
8460	8459	8470	8471	9
8460	8459	8470	5463	9
8460	8459	8458	8463	9
8460	8459	8458	8466	9
8460	8461	8468	8469	9
8460	8461	8468	8478	9
8460	8461	8462	8463	9
8460	8461	8462	8465	9
8458	8459	8470	8471	9
8458	8459	8470	5463	9
8458	8459	8460	8464	9
8458	8463	8462	8465	9
8462	8461	8468	8469	9
8462	8461	8468	8478	9
8462	8461	8460	8464	9
8462	8463	8458	8466	9
8466	8458	8463	8467	9
8465	8462	8463	8467	9
8471	8470	5463	5456	9
8471	8470	5463	5465	9
8469	8468	8478	8472	9
8469	8468	8478	8479	9
1946	1945	1944	1955	9
1949	1945	1944	1955	9
1948	1943	1944	1955	9
1951	1943	1944	1955	9
1944	1945	1946	1953	9
1949	1945	1946	1953	9
1948	1947	1946	1953	9
1950	1947	1946	1953	9
1929	1926	1932	1953	9
1927	1926	1932	1953	9
1944	1945	1946	1947	9
1944	1943	1948	1947	9
1944	1943	1948	1952	9
1926	1932	1953	1946	9
1933	1932	1953	1946	9
1943	1944	1945	1946	9
1943	1948	1947	1946	9
1946	1947	1948	1952	9
1945	1944	1955	1956	9
1945	1944	1955	1957	9
1945	1944	1943	1948	9
1945	1944	1943	1951	9
1945	1946	1953	1954	9
1932	1953	1946	1945	9
1945	1946	1947	1948	9
1945	1946	1947	1950	9
1943	1944	1955	1956	9
1943	1944	1955	1957	9
1943	1944	1945	1949	9
1943	1948	1947	1950	9
1947	1946	1953	1954	9
1932	1953	1946	1947	9
1947	1946	1945	1949	9
1947	1948	1943	1951	9
1951	1943	1948	1952	9
1950	1947	1948	1952	9
1926	1932	1953	1954	9
1933	1932	1953	1954	9
7162	7161	7160	7171	9
7165	7161	7160	7171	9
7164	7159	7160	7171	9
7167	7159	7160	7171	9
7171	6427	6420	6419	9
7171	6427	6420	6421	9
7160	7161	7162	7169	9
7165	7161	7162	7169	9
7164	7163	7162	7169	9
7166	7163	7162	7169	9
7169	7184	7177	7178	9
7169	7184	7177	7176	9
7160	7171	6427	6420	9
7160	7171	6427	6429	9
7160	7161	7162	7163	9
7160	7159	7164	7163	9
7160	7159	7164	7168	9
7162	7169	7184	7177	9
7162	7169	7184	7186	9
7159	7160	7161	7162	9
7159	7164	7163	7162	9
7162	7163	7164	7168	9
7161	7160	7171	7172	9
7161	7160	7171	6427	9
7161	7160	7159	7164	9
7161	7160	7159	7167	9
7161	7162	7169	7170	9
7161	7162	7169	7184	9
7161	7162	7163	7164	9
7161	7162	7163	7166	9
7159	7160	7171	7172	9
7159	7160	7171	6427	9
7159	7160	7161	7165	9
7159	7164	7163	7166	9
7163	7162	7169	7170	9
7163	7162	7169	7184	9
7163	7162	7161	7165	9
7163	7164	7159	7167	9
7167	7159	7164	7168	9
7166	7163	7164	7168	9
7172	7171	6427	6420	9
7172	7171	6427	6429	9
7170	7169	7184	7177	9
7170	7169	7184	7186	9
5412	5411	5410	5421	9
5415	5411	5410	5421	9
5414	5409	5410	5421	9
5417	5409	5410	5421	9
5421	5429	5423	5426	9
5421	5429	5423	5424	9
5410	5411	5412	5419	9
5415	5411	5412	5419	9
5414	5413	5412	5419	9
5416	5413	5412	5419	9
5419	10672	10665	10666	9
5419	10672	10665	10664	9
5410	5421	5429	5423	9
5410	5421	5429	5430	9
5410	5411	5412	5413	9
5410	5409	5414	5413	9
5410	5409	5414	5418	9
5412	5419	10672	10665	9
5412	5419	10672	10674	9
5409	5410	5411	5412	9
5409	5414	5413	5412	9
5412	5413	5414	5418	9
5411	5410	5421	5422	9
5411	5410	5421	5429	9
5411	5410	5409	5414	9
5411	5410	5409	5417	9
5411	5412	5419	5420	9
5411	5412	5419	10672	9
5411	5412	5413	5414	9
5411	5412	5413	5416	9
5409	5410	5421	5422	9
5409	5410	5421	5429	9
5409	5410	5411	5415	9
5409	5414	5413	5416	9
5413	5412	5419	5420	9
5413	5412	5419	10672	9
5413	5412	5411	5415	9
5413	5414	5409	5417	9
5417	5409	5414	5418	9
5416	5413	5414	5418	9
5422	5421	5429	5423	9
5422	5421	5429	5430	9
5420	5419	10672	10665	9
5420	5419	10672	10674	9
12676	12675	12674	12685	9
12679	12675	12674	12685	9
12678	12673	12674	12685	9
12681	12673	12674	12685	9
12685	7155	7148	7147	9
12685	7155	7148	7149	9
12674	12675	12676	12683	9
12679	12675	12676	12683	9
12678	12677	12676	12683	9
12680	12677	12676	12683	9
12683	6515	6505	6508	9
12683	6515	6505	6504	9
12674	12685	7155	7148	9
12674	12685	7155	7157	9
12674	12675	12676	12677	9
12674	12673	12678	12677	9
12674	12673	12678	12682	9
12676	12683	6515	6505	9
12676	12683	6515	6517	9
12673	12674	12675	12676	9
12673	12678	12677	12676	9
12676	12677	12678	12682	9
12675	12674	12685	12686	9
12675	12674	12685	7155	9
12675	12674	12673	12678	9
12675	12674	12673	12681	9
12675	12676	12683	12684	9
12675	12676	12683	6515	9
12675	12676	12677	12678	9
12675	12676	12677	12680	9
12673	12674	12685	12686	9
12673	12674	12685	7155	9
12673	12674	12675	12679	9
12673	12678	12677	12680	9
12677	12676	12683	12684	9
12677	12676	12683	6515	9
12677	12676	12675	12679	9
12677	12678	12673	12681	9
12681	12673	12678	12682	9
12680	12677	12678	12682	9
12686	12685	7155	7148	9
12686	12685	7155	7157	9
12684	12683	6515	6505	9
12684	12683	6515	6517	9
7410	7409	7408	7419	9
7413	7409	7408	7419	9
7412	7407	7408	7419	9
7415	7407	7408	7419	9
7419	9403	9393	9396	9
7419	9403	9393	9392	9
7408	7409	7410	7417	9
7413	7409	7410	7417	9
7412	7411	7410	7417	9
7414	7411	7410	7417	9
7417	7427	7421	7424	9
7417	7427	7421	7422	9
7408	7419	9403	9393	9
7408	7419	9403	9405	9
7408	7409	7410	7411	9
7408	7407	7412	7411	9
7408	7407	7412	7416	9
7410	7417	7427	7421	9
7410	7417	7427	7428	9
7407	7408	7409	7410	9
7407	7412	7411	7410	9
7410	7411	7412	7416	9
7409	7408	7419	7420	9
7409	7408	7419	9403	9
7409	7408	7407	7412	9
7409	7408	7407	7415	9
7409	7410	7417	7418	9
7409	7410	7417	7427	9
7409	7410	7411	7412	9
7409	7410	7411	7414	9
7407	7408	7419	7420	9
7407	7408	7419	9403	9
7407	7408	7409	7413	9
7407	7412	7411	7414	9
7411	7410	7417	7418	9
7411	7410	7417	7427	9
7411	7410	7409	7413	9
7411	7412	7407	7415	9
7415	7407	7412	7416	9
7414	7411	7412	7416	9
7420	7419	9403	9393	9
7420	7419	9403	9405	9
7418	7417	7427	7421	9
7418	7417	7427	7428	9
10182	10181	10180	10191	9
10185	10181	10180	10191	9
10184	10179	10180	10191	9
10187	10179	10180	10191	9
1314	1315	1322	10191	9
1316	1315	1322	10191	9
10180	10181	10182	10189	9
10185	10181	10182	10189	9
10184	10183	10182	10189	9
10186	10183	10182	10189	9
10189	10199	10193	10194	9
10189	10199	10193	10196	9
1315	1322	10191	10180	9
1324	1322	10191	10180	9
10180	10181	10182	10183	9
10180	10179	10184	10183	9
10180	10179	10184	10188	9
10182	10189	10199	10193	9
10182	10189	10199	10200	9
10179	10180	10181	10182	9
10179	10184	10183	10182	9
10182	10183	10184	10188	9
10181	10180	10191	10192	9
1322	10191	10180	10181	9
10181	10180	10179	10184	9
10181	10180	10179	10187	9
10181	10182	10189	10190	9
10181	10182	10189	10199	9
10181	10182	10183	10184	9
10181	10182	10183	10186	9
10179	10180	10191	10192	9
1322	10191	10180	10179	9
10179	10180	10181	10185	9
10179	10184	10183	10186	9
10183	10182	10189	10190	9
10183	10182	10189	10199	9
10183	10182	10181	10185	9
10183	10184	10179	10187	9
10187	10179	10184	10188	9
10186	10183	10184	10188	9
1315	1322	10191	10192	9
1324	1322	10191	10192	9
10190	10189	10199	10193	9
10190	10189	10199	10200	9
11962	11961	11960	11971	9
11965	11961	11960	11971	9
11964	11959	11960	11971	9
11967	11959	11960	11971	9
11971	5217	5207	5210	9
11971	5217	5207	5206	9
11960	11961	11962	11969	9
11965	11961	11962	11969	9
11964	11963	11962	11969	9
11966	11963	11962	11969	9
2303	2304	2306	11969	9
2305	2304	2306	11969	9
11960	11971	5217	5207	9
11960	11971	5217	5219	9
11960	11961	11962	11963	9
11960	11959	11964	11963	9
11960	11959	11964	11968	9
2304	2306	11969	11962	9
2307	2306	11969	11962	9
11959	11960	11961	11962	9
11959	11964	11963	11962	9
11962	11963	11964	11968	9
11961	11960	11971	11972	9
11961	11960	11971	5217	9
11961	11960	11959	11964	9
11961	11960	11959	11967	9
11961	11962	11969	11970	9
2306	11969	11962	11961	9
11961	11962	11963	11964	9
11961	11962	11963	11966	9
11959	11960	11971	11972	9
11959	11960	11971	5217	9
11959	11960	11961	11965	9
11959	11964	11963	11966	9
11963	11962	11969	11970	9
2306	11969	11962	11963	9
11963	11962	11961	11965	9
11963	11964	11959	11967	9
11967	11959	11964	11968	9
11966	11963	11964	11968	9
11972	11971	5217	5207	9
11972	11971	5217	5219	9
2304	2306	11969	11970	9
2307	2306	11969	11970	9
8651	8650	8649	8660	9
8654	8650	8649	8660	9
8653	8648	8649	8660	9
8656	8648	8649	8660	9
8660	8668	8662	8663	9
8660	8668	8662	8665	9
8649	8650	8651	8658	9
8654	8650	8651	8658	9
8653	8652	8651	8658	9
8655	8652	8651	8658	9
8658	9345	9335	9334	9
8658	9345	9335	9338	9
8649	8660	8668	8662	9
8649	8660	8668	8669	9
8649	8650	8651	8652	9
8649	8648	8653	8652	9
8649	8648	8653	8657	9
8651	8658	9345	9335	9
8651	8658	9345	9347	9
8648	8649	8650	8651	9
8648	8653	8652	8651	9
8651	8652	8653	8657	9
8650	8649	8660	8661	9
8650	8649	8660	8668	9
8650	8649	8648	8653	9
8650	8649	8648	8656	9
8650	8651	8658	8659	9
8650	8651	8658	9345	9
8650	8651	8652	8653	9
8650	8651	8652	8655	9
8648	8649	8660	8661	9
8648	8649	8660	8668	9
8648	8649	8650	8654	9
8648	8653	8652	8655	9
8652	8651	8658	8659	9
8652	8651	8658	9345	9
8652	8651	8650	8654	9
8652	8653	8648	8656	9
8656	8648	8653	8657	9
8655	8652	8653	8657	9
8661	8660	8668	8662	9
8661	8660	8668	8669	9
8659	8658	9345	9335	9
8659	8658	9345	9347	9
6171	6170	6169	6180	9
6174	6170	6169	6180	9
6173	6168	6169	6180	9
6176	6168	6169	6180	9
6180	7398	7392	7395	9
6180	7398	7392	7393	9
6169	6170	6171	6178	9
6174	6170	6171	6178	9
6173	6172	6171	6178	9
6175	6172	6171	6178	9
6178	6188	6182	6183	9
6178	6188	6182	6185	9
6169	6180	7398	7392	9
6169	6180	7398	7399	9
6169	6170	6171	6172	9
6169	6168	6173	6172	9
6169	6168	6173	6177	9
6171	6178	6188	6182	9
6171	6178	6188	6189	9
6168	6169	6170	6171	9
6168	6173	6172	6171	9
6171	6172	6173	6177	9
6170	6169	6180	6181	9
6170	6169	6180	7398	9
6170	6169	6168	6173	9
6170	6169	6168	6176	9
6170	6171	6178	6179	9
6170	6171	6178	6188	9
6170	6171	6172	6173	9
6170	6171	6172	6175	9
6168	6169	6180	6181	9
6168	6169	6180	7398	9
6168	6169	6170	6174	9
6168	6173	6172	6175	9
6172	6171	6178	6179	9
6172	6171	6178	6188	9
6172	6171	6170	6174	9
6172	6173	6168	6176	9
6176	6168	6173	6177	9
6175	6172	6173	6177	9
6181	6180	7398	7392	9
6181	6180	7398	7399	9
6179	6178	6188	6182	9
6179	6178	6188	6189	9
11890	11891	11892	11899	9
11895	11891	11892	11899	9
11894	11893	11892	11899	9
11896	11893	11892	11899	9
11899	5101	5091	5090	9
11899	5101	5091	5094	9
11892	11891	11890	11901	9
11895	11891	11890	11901	9
11894	11889	11890	11901	9
11897	11889	11890	11901	9
11901	10557	10547	10546	9
11901	10557	10547	10550	9
11892	11899	5101	5091	9
11892	11899	5101	5103	9
11892	11891	11890	11889	9
11892	11893	11894	11889	9
11892	11893	11894	11898	9
11890	11901	10557	10547	9
11890	11901	10557	10559	9
11893	11892	11891	11890	9
11893	11894	11889	11890	9
11890	11889	11894	11898	9
11891	11892	11899	11900	9
11891	11892	11899	5101	9
11891	11892	11893	11894	9
11891	11892	11893	11896	9
11891	11890	11901	11902	9
11891	11890	11901	10557	9
11891	11890	11889	11894	9
11891	11890	11889	11897	9
11893	11892	11899	11900	9
11893	11892	11899	5101	9
11893	11892	11891	11895	9
11893	11894	11889	11897	9
11889	11890	11901	11902	9
11889	11890	11901	10557	9
11889	11890	11891	11895	9
11889	11894	11893	11896	9
11896	11893	11894	11898	9
11897	11889	11894	11898	9
11900	11899	5101	5091	9
11900	11899	5101	5103	9
11902	11901	10557	10547	9
11902	11901	10557	10559	9
7002	7001	7000	7011	9
7005	7001	7000	7011	9
7004	6999	7000	7011	9
7007	6999	7000	7011	9
7011	7019	7013	7016	9
7011	7019	7013	7014	9
7000	7001	7002	7009	9
7005	7001	7002	7009	9
7004	7003	7002	7009	9
7006	7003	7002	7009	9
7009	5056	5049	5050	9
7009	5056	5049	5048	9
7000	7011	7019	7013	9
7000	7011	7019	7020	9
7000	7001	7002	7003	9
7000	6999	7004	7003	9
7000	6999	7004	7008	9
7002	7009	5056	5049	9
7002	7009	5056	5058	9
6999	7000	7001	7002	9
6999	7004	7003	7002	9
7002	7003	7004	7008	9
7001	7000	7011	7012	9
7001	7000	7011	7019	9
7001	7000	6999	7004	9
7001	7000	6999	7007	9
7001	7002	7009	7010	9
7001	7002	7009	5056	9
7001	7002	7003	7004	9
7001	7002	7003	7006	9
6999	7000	7011	7012	9
6999	7000	7011	7019	9
6999	7000	7001	7005	9
6999	7004	7003	7006	9
7003	7002	7009	7010	9
7003	7002	7009	5056	9
7003	7002	7001	7005	9
7003	7004	6999	7007	9
7007	6999	7004	7008	9
7006	7003	7004	7008	9
7012	7011	7019	7013	9
7012	7011	7019	7020	9
7010	7009	5056	5049	9
7010	7009	5056	5058	9
4249	4248	4247	4258	9
4252	4248	4247	4258	9
4251	4246	4247	4258	9
4254	4246	4247	4258	9
4258	4266	4260	4261	9
4258	4266	4260	4263	9
4247	4248	4249	4256	9
4252	4248	4249	4256	9
4251	4250	4249	4256	9
4253	4250	4249	4256	9
4256	7345	7335	7334	9
4256	7345	7335	7338	9
4247	4258	4266	4260	9
4247	4258	4266	4267	9
4247	4248	4249	4250	9
4247	4246	4251	4250	9
4247	4246	4251	4255	9
4249	4256	7345	7335	9
4249	4256	7345	7347	9
4246	4247	4248	4249	9
4246	4251	4250	4249	9
4249	4250	4251	4255	9
4248	4247	4258	4259	9
4248	4247	4258	4266	9
4248	4247	4246	4251	9
4248	4247	4246	4254	9
4248	4249	4256	4257	9
4248	4249	4256	7345	9
4248	4249	4250	4251	9
4248	4249	4250	4253	9
4246	4247	4258	4259	9
4246	4247	4258	4266	9
4246	4247	4248	4252	9
4246	4251	4250	4253	9
4250	4249	4256	4257	9
4250	4249	4256	7345	9
4250	4249	4248	4252	9
4250	4251	4246	4254	9
4254	4246	4251	4255	9
4253	4250	4251	4255	9
4259	4258	4266	4260	9
4259	4258	4266	4267	9
4257	4256	7345	7335	9
4257	4256	7345	7347	9
8870	8869	8868	8879	9
8873	8869	8868	8879	9
8872	8867	8868	8879	9
8875	8867	8868	8879	9
8879	8887	8881	8884	9
8879	8887	8881	8882	9
8868	8869	8870	8877	9
8873	8869	8870	8877	9
8872	8871	8870	8877	9
8874	8871	8870	8877	9
8877	9631	9625	9628	9
8877	9631	9625	9626	9
8868	8879	8887	8881	9
8868	8879	8887	8888	9
8868	8869	8870	8871	9
8868	8867	8872	8871	9
8868	8867	8872	8876	9
8870	8877	9631	9625	9
8870	8877	9631	9632	9
8867	8868	8869	8870	9
8867	8872	8871	8870	9
8870	8871	8872	8876	9
8869	8868	8879	8880	9
8869	8868	8879	8887	9
8869	8868	8867	8872	9
8869	8868	8867	8875	9
8869	8870	8877	8878	9
8869	8870	8877	9631	9
8869	8870	8871	8872	9
8869	8870	8871	8874	9
8867	8868	8879	8880	9
8867	8868	8879	8887	9
8867	8868	8869	8873	9
8867	8872	8871	8874	9
8871	8870	8877	8878	9
8871	8870	8877	9631	9
8871	8870	8869	8873	9
8871	8872	8867	8875	9
8875	8867	8872	8876	9
8874	8871	8872	8876	9
8880	8879	8887	8881	9
8880	8879	8887	8888	9
8878	8877	9631	9625	9
8878	8877	9631	9632	9
6521	6520	6519	6530	9
6524	6520	6519	6530	9
6523	6518	6519	6530	9
6526	6518	6519	6530	9
6530	6544	6534	6533	9
6530	6544	6534	6537	9
6519	6520	6521	6528	9
6524	6520	6521	6528	9
6523	6522	6521	6528	9
6525	6522	6521	6528	9
6528	9753	9746	9747	9
6528	9753	9746	9745	9
6519	6530	6544	6534	9
6519	6530	6544	6546	9
6519	6520	6521	6522	9
6519	6518	6523	6522	9
6519	6518	6523	6527	9
6521	6528	9753	9746	9
6521	6528	9753	9755	9
6518	6519	6520	6521	9
6518	6523	6522	6521	9
6521	6522	6523	6527	9
6520	6519	6530	6531	9
6520	6519	6530	6544	9
6520	6519	6518	6523	9
6520	6519	6518	6526	9
6520	6521	6528	6529	9
6520	6521	6528	9753	9
6520	6521	6522	6523	9
6520	6521	6522	6525	9
6518	6519	6530	6531	9
6518	6519	6530	6544	9
6518	6519	6520	6524	9
6518	6523	6522	6525	9
6522	6521	6528	6529	9
6522	6521	6528	9753	9
6522	6521	6520	6524	9
6522	6523	6518	6526	9
6526	6518	6523	6527	9
6525	6522	6523	6527	9
6531	6530	6544	6534	9
6531	6530	6544	6546	9
6529	6528	9753	9746	9
6529	6528	9753	9755	9
10124	10123	10122	10133	9
10127	10123	10122	10133	9
10126	10121	10122	10133	9
10129	10121	10122	10133	9
10133	5507	5500	5501	9
10133	5507	5500	5499	9
10122	10123	10124	10131	9
10127	10123	10124	10131	9
10126	10125	10124	10131	9
10128	10125	10124	10131	9
10131	10146	10139	10140	9
10131	10146	10139	10138	9
10122	10133	5507	5500	9
10122	10133	5507	5509	9
10122	10123	10124	10125	9
10122	10121	10126	10125	9
10122	10121	10126	10130	9
10124	10131	10146	10139	9
10124	10131	10146	10148	9
10121	10122	10123	10124	9
10121	10126	10125	10124	9
10124	10125	10126	10130	9
10123	10122	10133	10134	9
10123	10122	10133	5507	9
10123	10122	10121	10126	9
10123	10122	10121	10129	9
10123	10124	10131	10132	9
10123	10124	10131	10146	9
10123	10124	10125	10126	9
10123	10124	10125	10128	9
10121	10122	10133	10134	9
10121	10122	10133	5507	9
10121	10122	10123	10127	9
10121	10126	10125	10128	9
10125	10124	10131	10132	9
10125	10124	10131	10146	9
10125	10124	10123	10127	9
10125	10126	10121	10129	9
10129	10121	10126	10130	9
10128	10125	10126	10130	9
10134	10133	5507	5500	9
10134	10133	5507	5509	9
10132	10131	10146	10139	9
10132	10131	10146	10148	9
12982	12983	12984	12991	9
12987	12983	12984	12991	9
12986	12985	12984	12991	9
12988	12985	12984	12991	9
1407	1408	1415	12991	9
1409	1408	1415	12991	9
12984	12983	12982	12993	9
12987	12983	12982	12993	9
12986	12981	12982	12993	9
12989	12981	12982	12993	9
12993	7432	7425	7424	9
12993	7432	7425	7426	9
1408	1415	12991	12984	9
1417	1415	12991	12984	9
12981	12982	12983	12984	9
12981	12986	12985	12984	9
12984	12985	12986	12990	9
12982	12993	7432	7425	9
12982	12993	7432	7434	9
12982	12983	12984	12985	9
12982	12981	12986	12985	9
12982	12981	12986	12990	9
12983	12984	12991	12992	9
1415	12991	12984	12983	9
12983	12984	12985	12986	9
12983	12984	12985	12988	9
12983	12982	12993	12994	9
12983	12982	12993	7432	9
12983	12982	12981	12986	9
12983	12982	12981	12989	9
12985	12984	12991	12992	9
1415	12991	12984	12985	9
12985	12984	12983	12987	9
12985	12986	12981	12989	9
12981	12982	12993	12994	9
12981	12982	12993	7432	9
12981	12982	12983	12987	9
12981	12986	12985	12988	9
12988	12985	12986	12990	9
12989	12981	12986	12990	9
1408	1415	12991	12992	9
1417	1415	12991	12992	9
12994	12993	7432	7425	9
12994	12993	7432	7434	9
8914	8913	8912	8923	9
8917	8913	8912	8923	9
8916	8911	8912	8923	9
8919	8911	8912	8923	9
8923	10272	10266	10269	9
8923	10272	10266	10267	9
8912	8913	8914	8921	9
8917	8913	8914	8921	9
8916	8915	8914	8921	9
8918	8915	8914	8921	9
8921	8931	8925	8928	9
8921	8931	8925	8926	9
8912	8923	10272	10266	9
8912	8923	10272	10273	9
8912	8913	8914	8915	9
8912	8911	8916	8915	9
8912	8911	8916	8920	9
8914	8921	8931	8925	9
8914	8921	8931	8932	9
8911	8912	8913	8914	9
8911	8916	8915	8914	9
8914	8915	8916	8920	9
8913	8912	8923	8924	9
8913	8912	8923	10272	9
8913	8912	8911	8916	9
8913	8912	8911	8919	9
8913	8914	8921	8922	9
8913	8914	8921	8931	9
8913	8914	8915	8916	9
8913	8914	8915	8918	9
8911	8912	8923	8924	9
8911	8912	8923	10272	9
8911	8912	8913	8917	9
8911	8916	8915	8918	9
8915	8914	8921	8922	9
8915	8914	8921	8931	9
8915	8914	8913	8917	9
8915	8916	8911	8919	9
8919	8911	8916	8920	9
8918	8915	8916	8920	9
8924	8923	10272	10266	9
8924	8923	10272	10273	9
8922	8921	8931	8925	9
8922	8921	8931	8932	9
9146	9147	9148	9155	9
9151	9147	9148	9155	9
9150	9149	9148	9155	9
9152	9149	9148	9155	9
9155	10204	10197	10198	9
9155	10204	10197	10196	9
9148	9147	9146	9157	9
9151	9147	9146	9157	9
9150	9145	9146	9157	9
9153	9145	9146	9157	9
9157	9165	9159	9162	9
9157	9165	9159	9160	9
9148	9155	10204	10197	9
9148	9155	10204	10206	9
9145	9146	9147	9148	9
9145	9150	9149	9148	9
9148	9149	9150	9154	9
9146	9157	9165	9159	9
9146	9157	9165	9166	9
9146	9147	9148	9149	9
9146	9145	9150	9149	9
9146	9145	9150	9154	9
9147	9148	9155	9156	9
9147	9148	9155	10204	9
9147	9148	9149	9150	9
9147	9148	9149	9152	9
9147	9146	9157	9158	9
9147	9146	9157	9165	9
9147	9146	9145	9150	9
9147	9146	9145	9153	9
9149	9148	9155	9156	9
9149	9148	9155	10204	9
9149	9148	9147	9151	9
9149	9150	9145	9153	9
9145	9146	9157	9158	9
9145	9146	9157	9165	9
9145	9146	9147	9151	9
9145	9150	9149	9152	9
9152	9149	9150	9154	9
9153	9145	9150	9154	9
9156	9155	10204	10197	9
9156	9155	10204	10206	9
9158	9157	9165	9159	9
9158	9157	9165	9166	9
13446	13445	13444	13455	9
13449	13445	13444	13455	9
13448	13443	13444	13455	9
13451	13443	13444	13455	9
13455	8806	8796	8795	9
13455	8806	8796	8799	9
13444	13445	13446	13453	9
13449	13445	13446	13453	9
13448	13447	13446	13453	9
13450	13447	13446	13453	9
1005	1004	1011	13453	9
1003	1004	1011	13453	9
13444	13455	8806	8796	9
13444	13455	8806	8808	9
13444	13445	13446	13447	9
13444	13443	13448	13447	9
13444	13443	13448	13452	9
1004	1011	13453	13446	9
1013	1011	13453	13446	9
13443	13444	13445	13446	9
13443	13448	13447	13446	9
13446	13447	13448	13452	9
13445	13444	13455	13456	9
13445	13444	13455	8806	9
13445	13444	13443	13448	9
13445	13444	13443	13451	9
13445	13446	13453	13454	9
1011	13453	13446	13445	9
13445	13446	13447	13448	9
13445	13446	13447	13450	9
13443	13444	13455	13456	9
13443	13444	13455	8806	9
13443	13444	13445	13449	9
13443	13448	13447	13450	9
13447	13446	13453	13454	9
1011	13453	13446	13447	9
13447	13446	13445	13449	9
13447	13448	13443	13451	9
13451	13443	13448	13452	9
13450	13447	13448	13452	9
13456	13455	8806	8796	9
13456	13455	8806	8808	9
1004	1011	13453	13454	9
1013	1011	13453	13454	9
3511	3512	3513	3520	9
3516	3512	3513	3520	9
3515	3514	3513	3520	9
3517	3514	3513	3520	9
3520	9768	9761	9762	9
3520	9768	9761	9760	9
3513	3512	3511	3522	9
3516	3512	3511	3522	9
3515	3510	3511	3522	9
3518	3510	3511	3522	9
3513	3520	9768	9761	9
3513	3520	9768	9770	9
3510	3511	3512	3513	9
3510	3515	3514	3513	9
3513	3514	3515	3519	9
3511	3512	3513	3514	9
3511	3510	3515	3514	9
3511	3510	3515	3519	9
3512	3513	3520	3521	9
3512	3513	3520	9768	9
3512	3513	3514	3515	9
3512	3513	3514	3517	9
3512	3511	3522	3524	9
3512	3511	3522	3523	9
3512	3511	3510	3515	9
3512	3511	3510	3518	9
3514	3513	3520	3521	9
3514	3513	3520	9768	9
3514	3513	3512	3516	9
3514	3515	3510	3518	9
3510	3511	3522	3524	9
3510	3511	3522	3523	9
3510	3511	3512	3516	9
3510	3515	3514	3517	9
3517	3514	3515	3519	9
3518	3510	3515	3519	9
3521	3520	9768	9761	9
3521	3520	9768	9770	9
12578	12577	12576	12587	9
12581	12577	12576	12587	9
12580	12575	12576	12587	9
12583	12575	12576	12587	9
12587	9083	9076	9077	9
12587	9083	9076	9075	9
12576	12577	12578	12585	9
12581	12577	12578	12585	9
12580	12579	12578	12585	9
12582	12579	12578	12585	9
12585	6311	6301	6304	9
12585	6311	6301	6300	9
12576	12587	9083	9076	9
12576	12587	9083	9085	9
12576	12577	12578	12579	9
12576	12575	12580	12579	9
12576	12575	12580	12584	9
12578	12585	6311	6301	9
12578	12585	6311	6313	9
12575	12576	12577	12578	9
12575	12580	12579	12578	9
12578	12579	12580	12584	9
12577	12576	12587	12588	9
12577	12576	12587	9083	9
12577	12576	12575	12580	9
12577	12576	12575	12583	9
12577	12578	12585	12586	9
12577	12578	12585	6311	9
12577	12578	12579	12580	9
12577	12578	12579	12582	9
12575	12576	12587	12588	9
12575	12576	12587	9083	9
12575	12576	12577	12581	9
12575	12580	12579	12582	9
12579	12578	12585	12586	9
12579	12578	12585	6311	9
12579	12578	12577	12581	9
12579	12580	12575	12583	9
12583	12575	12580	12584	9
12582	12579	12580	12584	9
12588	12587	9083	9076	9
12588	12587	9083	9085	9
12586	12585	6311	6301	9
12586	12585	6311	6313	9
13306	13305	13304	13315	9
13309	13305	13304	13315	9
13308	13303	13304	13315	9
13311	13303	13304	13315	9
13315	10306	10299	10300	9
13315	10306	10299	10298	9
13304	13305	13306	13313	9
13309	13305	13306	13313	9
13308	13307	13306	13313	9
13310	13307	13306	13313	9
13313	8263	8256	8257	9
13313	8263	8256	8255	9
13304	13315	10306	10299	9
13304	13315	10306	10308	9
13304	13305	13306	13307	9
13304	13303	13308	13307	9
13304	13303	13308	13312	9
13306	13313	8263	8256	9
13306	13313	8263	8265	9
13303	13304	13305	13306	9
13303	13308	13307	13306	9
13306	13307	13308	13312	9
13305	13304	13315	13316	9
13305	13304	13315	10306	9
13305	13304	13303	13308	9
13305	13304	13303	13311	9
13305	13306	13313	13314	9
13305	13306	13313	8263	9
13305	13306	13307	13308	9
13305	13306	13307	13310	9
13303	13304	13315	13316	9
13303	13304	13315	10306	9
13303	13304	13305	13309	9
13303	13308	13307	13310	9
13307	13306	13313	13314	9
13307	13306	13313	8263	9
13307	13306	13305	13309	9
13307	13308	13303	13311	9
13311	13303	13308	13312	9
13310	13307	13308	13312	9
13316	13315	10306	10299	9
13316	13315	10306	10308	9
13314	13313	8263	8256	9
13314	13313	8263	8265	9
7861	7860	7859	7870	9
7864	7860	7859	7870	9
7863	7858	7859	7870	9
7866	7858	7859	7870	9
7870	7878	7872	7873	9
7870	7878	7872	7875	9
7859	7860	7861	7868	9
7864	7860	7861	7868	9
7863	7862	7861	7868	9
7865	7862	7861	7868	9
7868	6369	6362	6363	9
7868	6369	6362	6361	9
7859	7870	7878	7872	9
7859	7870	7878	7879	9
7859	7860	7861	7862	9
7859	7858	7863	7862	9
7859	7858	7863	7867	9
7861	7868	6369	6362	9
7861	7868	6369	6371	9
7858	7859	7860	7861	9
7858	7863	7862	7861	9
7861	7862	7863	7867	9
7860	7859	7870	7871	9
7860	7859	7870	7878	9
7860	7859	7858	7863	9
7860	7859	7858	7866	9
7860	7861	7868	7869	9
7860	7861	7868	6369	9
7860	7861	7862	7863	9
7860	7861	7862	7865	9
7858	7859	7870	7871	9
7858	7859	7870	7878	9
7858	7859	7860	7864	9
7858	7863	7862	7865	9
7862	7861	7868	7869	9
7862	7861	7868	6369	9
7862	7861	7860	7864	9
7862	7863	7858	7866	9
7866	7858	7863	7867	9
7865	7862	7863	7867	9
7871	7870	7878	7872	9
7871	7870	7878	7879	9
7869	7868	6369	6362	9
7869	7868	6369	6371	9
12200	12199	12198	12209	9
12203	12199	12198	12209	9
12202	12197	12198	12209	9
12205	12197	12198	12209	9
12209	5902	5892	5891	9
12209	5902	5892	5895	9
12198	12199	12200	12207	9
12203	12199	12200	12207	9
12202	12201	12200	12207	9
12204	12201	12200	12207	9
12207	5640	5630	5633	9
12207	5640	5630	5629	9
12198	12209	5902	5892	9
12198	12209	5902	5904	9
12198	12199	12200	12201	9
12198	12197	12202	12201	9
12198	12197	12202	12206	9
12200	12207	5640	5630	9
12200	12207	5640	5642	9
12197	12198	12199	12200	9
12197	12202	12201	12200	9
12200	12201	12202	12206	9
12199	12198	12209	12210	9
12199	12198	12209	5902	9
12199	12198	12197	12202	9
12199	12198	12197	12205	9
12199	12200	12207	12208	9
12199	12200	12207	5640	9
12199	12200	12201	12202	9
12199	12200	12201	12204	9
12197	12198	12209	12210	9
12197	12198	12209	5902	9
12197	12198	12199	12203	9
12197	12202	12201	12204	9
12201	12200	12207	12208	9
12201	12200	12207	5640	9
12201	12200	12199	12203	9
12201	12202	12197	12205	9
12205	12197	12202	12206	9
12204	12201	12202	12206	9
12210	12209	5902	5892	9
12210	12209	5902	5904	9
12208	12207	5640	5630	9
12208	12207	5640	5642	9
11458	11457	11456	11467	9
11461	11457	11456	11467	9
11460	11455	11456	11467	9
11463	11455	11456	11467	9
11467	6996	6986	6989	9
11467	6996	6986	6985	9
11456	11457	11458	11465	9
11461	11457	11458	11465	9
11460	11459	11458	11465	9
11462	11459	11458	11465	9
11465	4286	4279	4278	9
11465	4286	4279	4280	9
11456	11467	6996	6986	9
11456	11467	6996	6998	9
11456	11457	11458	11459	9
11456	11455	11460	11459	9
11456	11455	11460	11464	9
11458	11465	4286	4279	9
11458	11465	4286	4288	9
11455	11456	11457	11458	9
11455	11460	11459	11458	9
11458	11459	11460	11464	9
11457	11456	11467	11468	9
11457	11456	11467	6996	9
11457	11456	11455	11460	9
11457	11456	11455	11463	9
11457	11458	11465	11466	9
11457	11458	11465	4286	9
11457	11458	11459	11460	9
11457	11458	11459	11462	9
11455	11456	11467	11468	9
11455	11456	11467	6996	9
11455	11456	11457	11461	9
11455	11460	11459	11462	9
11459	11458	11465	11466	9
11459	11458	11465	4286	9
11459	11458	11457	11461	9
11459	11460	11455	11463	9
11463	11455	11460	11464	9
11462	11459	11460	11464	9
11468	11467	6996	6986	9
11468	11467	6996	6998	9
11466	11465	4286	4279	9
11466	11465	4286	4288	9
13362	13361	13360	13371	9
13365	13361	13360	13371	9
13364	13359	13360	13371	9
13367	13359	13360	13371	9
13371	8382	8372	8375	9
13371	8382	8372	8371	9
13360	13361	13362	13369	9
13365	13361	13362	13369	9
13364	13363	13362	13369	9
13366	13363	13362	13369	9
480	479	486	13369	9
478	479	486	13369	9
13360	13371	8382	8372	9
13360	13371	8382	8384	9
13360	13361	13362	13363	9
13360	13359	13364	13363	9
13360	13359	13364	13368	9
479	486	13369	13362	9
488	486	13369	13362	9
13359	13360	13361	13362	9
13359	13364	13363	13362	9
13362	13363	13364	13368	9
13361	13360	13371	13372	9
13361	13360	13371	8382	9
13361	13360	13359	13364	9
13361	13360	13359	13367	9
13361	13362	13369	13370	9
486	13369	13362	13361	9
13361	13362	13363	13364	9
13361	13362	13363	13366	9
13359	13360	13371	13372	9
13359	13360	13371	8382	9
13359	13360	13361	13365	9
13359	13364	13363	13366	9
13363	13362	13369	13370	9
486	13369	13362	13363	9
13363	13362	13361	13365	9
13363	13364	13359	13367	9
13367	13359	13364	13368	9
13366	13363	13364	13368	9
13372	13371	8382	8372	9
13372	13371	8382	8384	9
479	486	13369	13370	9
488	486	13369	13370	9
4801	4800	4799	4810	9
4804	4800	4799	4810	9
4803	4798	4799	4810	9
4806	4798	4799	4810	9
2254	2253	2259	4810	9
2256	2253	2259	4810	9
4799	4800	4801	4808	9
4804	4800	4801	4808	9
4803	4802	4801	4808	9
4805	4802	4801	4808	9
4808	4818	4812	4815	9
4808	4818	4812	4813	9
2253	2259	4810	4799	9
2260	2259	4810	4799	9
4799	4800	4801	4802	9
4799	4798	4803	4802	9
4799	4798	4803	4807	9
4801	4808	4818	4812	9
4801	4808	4818	4819	9
4798	4799	4800	4801	9
4798	4803	4802	4801	9
4801	4802	4803	4807	9
4800	4799	4810	4811	9
2259	4810	4799	4800	9
4800	4799	4798	4803	9
4800	4799	4798	4806	9
4800	4801	4808	4809	9
4800	4801	4808	4818	9
4800	4801	4802	4803	9
4800	4801	4802	4805	9
4798	4799	4810	4811	9
2259	4810	4799	4798	9
4798	4799	4800	4804	9
4798	4803	4802	4805	9
4802	4801	4808	4809	9
4802	4801	4808	4818	9
4802	4801	4800	4804	9
4802	4803	4798	4806	9
4806	4798	4803	4807	9
4805	4802	4803	4807	9
2253	2259	4810	4811	9
2260	2259	4810	4811	9
4809	4808	4818	4812	9
4809	4808	4818	4819	9
182	181	180	191	9
185	181	180	191	9
184	179	180	191	9
187	179	180	191	9
167	168	170	191	9
169	168	170	191	9
180	181	182	189	9
185	181	182	189	9
184	183	182	189	9
186	183	182	189	9
189	6326	6316	6319	9
189	6326	6316	6315	9
168	170	191	180	9
171	170	191	180	9
180	181	182	183	9
180	179	184	183	9
180	179	184	188	9
182	189	6326	6316	9
182	189	6326	6328	9
179	180	181	182	9
179	184	183	182	9
182	183	184	188	9
181	180	191	192	9
170	191	180	181	9
181	180	179	184	9
181	180	179	187	9
181	182	189	190	9
181	182	189	6326	9
181	182	183	184	9
181	182	183	186	9
179	180	191	192	9
170	191	180	179	9
179	180	181	185	9
179	184	183	186	9
183	182	189	190	9
183	182	189	6326	9
183	182	181	185	9
183	184	179	187	9
187	179	184	188	9
186	183	184	188	9
168	170	191	192	9
171	170	191	192	9
190	189	6326	6316	9
190	189	6326	6328	9
5441	5440	5439	5450	9
5444	5440	5439	5450	9
5443	5438	5439	5450	9
5446	5438	5439	5450	9
5450	5458	5452	5455	9
5450	5458	5452	5453	9
5439	5440	5441	5448	9
5444	5440	5441	5448	9
5443	5442	5441	5448	9
5445	5442	5441	5448	9
5448	9725	9715	9714	9
5448	9725	9715	9718	9
5439	5450	5458	5452	9
5439	5450	5458	5459	9
5439	5440	5441	5442	9
5439	5438	5443	5442	9
5439	5438	5443	5447	9
5441	5448	9725	9715	9
5441	5448	9725	9727	9
5438	5439	5440	5441	9
5438	5443	5442	5441	9
5441	5442	5443	5447	9
5440	5439	5450	5451	9
5440	5439	5450	5458	9
5440	5439	5438	5443	9
5440	5439	5438	5446	9
5440	5441	5448	5449	9
5440	5441	5448	9725	9
5440	5441	5442	5443	9
5440	5441	5442	5445	9
5438	5439	5450	5451	9
5438	5439	5450	5458	9
5438	5439	5440	5444	9
5438	5443	5442	5445	9
5442	5441	5448	5449	9
5442	5441	5448	9725	9
5442	5441	5440	5444	9
5442	5443	5438	5446	9
5446	5438	5443	5447	9
5445	5442	5443	5447	9
5451	5450	5458	5452	9
5451	5450	5458	5459	9
5449	5448	9725	9715	9
5449	5448	9725	9727	9
6200	6199	6198	6209	9
6203	6199	6198	6209	9
6202	6197	6198	6209	9
6205	6197	6198	6209	9
6209	11009	11002	11001	9
6209	11009	11002	11003	9
6198	6199	6200	6207	9
6203	6199	6200	6207	9
6202	6201	6200	6207	9
6204	6201	6200	6207	9
6207	6217	6211	6212	9
6207	6217	6211	6214	9
6198	6209	11009	11002	9
6198	6209	11009	11011	9
6198	6199	6200	6201	9
6198	6197	6202	6201	9
6198	6197	6202	6206	9
6200	6207	6217	6211	9
6200	6207	6217	6218	9
6197	6198	6199	6200	9
6197	6202	6201	6200	9
6200	6201	6202	6206	9
6199	6198	6209	6210	9
6199	6198	6209	11009	9
6199	6198	6197	6202	9
6199	6198	6197	6205	9
6199	6200	6207	6208	9
6199	6200	6207	6217	9
6199	6200	6201	6202	9
6199	6200	6201	6204	9
6197	6198	6209	6210	9
6197	6198	6209	11009	9
6197	6198	6199	6203	9
6197	6202	6201	6204	9
6201	6200	6207	6208	9
6201	6200	6207	6217	9
6201	6200	6199	6203	9
6201	6202	6197	6205	9
6205	6197	6202	6206	9
6204	6201	6202	6206	9
6210	6209	11009	11002	9
6210	6209	11009	11011	9
6208	6207	6217	6211	9
6208	6207	6217	6218	9
2703	2702	2701	2712	9
2706	2702	2701	2712	9
2705	2700	2701	2712	9
2708	2700	2701	2712	9
2701	2702	2703	2710	9
2706	2702	2703	2710	9
2705	2704	2703	2710	9
2707	2704	2703	2710	9
2710	4534	4524	4527	9
2710	4534	4524	4523	9
2701	2702	2703	2704	9
2701	2700	2705	2704	9
2701	2700	2705	2709	9
2703	2710	4534	4524	9
2703	2710	4534	4536	9
2700	2701	2702	2703	9
2700	2705	2704	2703	9
2703	2704	2705	2709	9
2702	2701	2712	2714	9
2702	2701	2712	2713	9
2702	2701	2700	2705	9
2702	2701	2700	2708	9
2702	2703	2710	2711	9
2702	2703	2710	4534	9
2702	2703	2704	2705	9
2702	2703	2704	2707	9
2700	2701	2712	2714	9
2700	2701	2712	2713	9
2700	2701	2702	2706	9
2700	2705	2704	2707	9
2704	2703	2710	2711	9
2704	2703	2710	4534	9
2704	2703	2702	2706	9
2704	2705	2700	2708	9
2708	2700	2705	2709	9
2707	2704	2705	2709	9
2711	2710	4534	4524	9
2711	2710	4534	4536	9
12704	12703	12702	12713	9
12707	12703	12702	12713	9
12706	12701	12702	12713	9
12709	12701	12702	12713	9
12713	6587	6580	6581	9
12713	6587	6580	6579	9
12702	12703	12704	12711	9
12707	12703	12704	12711	9
12706	12705	12704	12711	9
12708	12705	12704	12711	9
12711	8161	8151	8154	9
12711	8161	8151	8150	9
12702	12713	6587	6580	9
12702	12713	6587	6589	9
12702	12703	12704	12705	9
12702	12701	12706	12705	9
12702	12701	12706	12710	9
12704	12711	8161	8151	9
12704	12711	8161	8163	9
12701	12702	12703	12704	9
12701	12706	12705	12704	9
12704	12705	12706	12710	9
12703	12702	12713	12714	9
12703	12702	12713	6587	9
12703	12702	12701	12706	9
12703	12702	12701	12709	9
12703	12704	12711	12712	9
12703	12704	12711	8161	9
12703	12704	12705	12706	9
12703	12704	12705	12708	9
12701	12702	12713	12714	9
12701	12702	12713	6587	9
12701	12702	12703	12707	9
12701	12706	12705	12708	9
12705	12704	12711	12712	9
12705	12704	12711	8161	9
12705	12704	12703	12707	9
12705	12706	12701	12709	9
12709	12701	12706	12710	9
12708	12705	12706	12710	9
12714	12713	6587	6580	9
12714	12713	6587	6589	9
12712	12711	8161	8151	9
12712	12711	8161	8163	9
3768	3767	3766	3777	9
3771	3767	3766	3777	9
3770	3765	3766	3777	9
3773	3765	3766	3777	9
3766	3767	3768	3775	9
3771	3767	3768	3775	9
3770	3769	3768	3775	9
3772	3769	3768	3775	9
2072	2071	2073	3775	9
2070	2071	2073	3775	9
3766	3767	3768	3769	9
3766	3765	3770	3769	9
3766	3765	3770	3774	9
2071	2073	3775	3768	9
2074	2073	3775	3768	9
3765	3766	3767	3768	9
3765	3770	3769	3768	9
3768	3769	3770	3774	9
3767	3766	3777	3778	9
3767	3766	3777	3779	9
3767	3766	3765	3770	9
3767	3766	3765	3773	9
3767	3768	3775	3776	9
2073	3775	3768	3767	9
3767	3768	3769	3770	9
3767	3768	3769	3772	9
3765	3766	3777	3778	9
3765	3766	3777	3779	9
3765	3766	3767	3771	9
3765	3770	3769	3772	9
3769	3768	3775	3776	9
2073	3775	3768	3769	9
3769	3768	3767	3771	9
3769	3770	3765	3773	9
3773	3765	3770	3774	9
3772	3769	3770	3774	9
2071	2073	3775	3776	9
2074	2073	3775	3776	9
13278	13277	13276	13287	9
13281	13277	13276	13287	9
13280	13275	13276	13287	9
13283	13275	13276	13287	9
13287	8248	8241	8240	9
13287	8248	8241	8242	9
13276	13277	13278	13285	9
13281	13277	13278	13285	9
13280	13279	13278	13285	9
13282	13279	13278	13285	9
1869	1868	1875	13285	9
1867	1868	1875	13285	9
13276	13287	8248	8241	9
13276	13287	8248	8250	9
13276	13277	13278	13279	9
13276	13275	13280	13279	9
13276	13275	13280	13284	9
1868	1875	13285	13278	9
1877	1875	13285	13278	9
13275	13276	13277	13278	9
13275	13280	13279	13278	9
13278	13279	13280	13284	9
13277	13276	13287	13288	9
13277	13276	13287	8248	9
13277	13276	13275	13280	9
13277	13276	13275	13283	9
13277	13278	13285	13286	9
1875	13285	13278	13277	9
13277	13278	13279	13280	9
13277	13278	13279	13282	9
13275	13276	13287	13288	9
13275	13276	13287	8248	9
13275	13276	13277	13281	9
13275	13280	13279	13282	9
13279	13278	13285	13286	9
1875	13285	13278	13279	9
13279	13278	13277	13281	9
13279	13280	13275	13283	9
13283	13275	13280	13284	9
13282	13279	13280	13284	9
13288	13287	8248	8241	9
13288	13287	8248	8250	9
1868	1875	13285	13286	9
1877	1875	13285	13286	9
2761	2762	2763	2770	9
2766	2762	2763	2770	9
2765	2764	2763	2770	9
2767	2764	2763	2770	9
2770	5100	5093	5094	9
2770	5100	5093	5092	9
2763	2762	2761	2772	9
2766	2762	2761	2772	9
2765	2760	2761	2772	9
2768	2760	2761	2772	9
2763	2770	5100	5093	9
2763	2770	5100	5102	9
2760	2761	2762	2763	9
2760	2765	2764	2763	9
2763	2764	2765	2769	9
2761	2762	2763	2764	9
2761	2760	2765	2764	9
2761	2760	2765	2769	9
2762	2763	2770	2771	9
2762	2763	2770	5100	9
2762	2763	2764	2765	9
2762	2763	2764	2767	9
2762	2761	2772	2773	9
2762	2761	2772	2774	9
2762	2761	2760	2765	9
2762	2761	2760	2768	9
2764	2763	2770	2771	9
2764	2763	2770	5100	9
2764	2763	2762	2766	9
2764	2765	2760	2768	9
2760	2761	2772	2773	9
2760	2761	2772	2774	9
2760	2761	2762	2766	9
2760	2765	2764	2767	9
2767	2764	2765	2769	9
2768	2760	2765	2769	9
2771	2770	5100	5093	9
2771	2770	5100	5102	9
9702	9701	9700	9711	9
9705	9701	9700	9711	9
9704	9699	9700	9711	9
9707	9699	9700	9711	9
9711	10233	10226	10227	9
9711	10233	10226	10225	9
9700	9701	9702	9709	9
9705	9701	9702	9709	9
9704	9703	9702	9709	9
9706	9703	9702	9709	9
9709	9719	9713	9714	9
9709	9719	9713	9716	9
9700	9711	10233	10226	9
9700	9711	10233	10235	9
9700	9701	9702	9703	9
9700	9699	9704	9703	9
9700	9699	9704	9708	9
9702	9709	9719	9713	9
9702	9709	9719	9720	9
9699	9700	9701	9702	9
9699	9704	9703	9702	9
9702	9703	9704	9708	9
9701	9700	9711	9712	9
9701	9700	9711	10233	9
9701	9700	9699	9704	9
9701	9700	9699	9707	9
9701	9702	9709	9710	9
9701	9702	9709	9719	9
9701	9702	9703	9704	9
9701	9702	9703	9706	9
9699	9700	9711	9712	9
9699	9700	9711	10233	9
9699	9700	9701	9705	9
9699	9704	9703	9706	9
9703	9702	9709	9710	9
9703	9702	9709	9719	9
9703	9702	9701	9705	9
9703	9704	9699	9707	9
9707	9699	9704	9708	9
9706	9703	9704	9708	9
9712	9711	10233	10226	9
9712	9711	10233	10235	9
9710	9709	9719	9713	9
9710	9709	9719	9720	9
12282	12283	12284	12291	9
12287	12283	12284	12291	9
12286	12285	12284	12291	9
12288	12285	12284	12291	9
12291	5799	5792	5793	9
12291	5799	5792	5791	9
12284	12283	12282	12293	9
12287	12283	12282	12293	9
12286	12281	12282	12293	9
12289	12281	12282	12293	9
12293	7258	7248	7247	9
12293	7258	7248	7251	9
12284	12291	5799	5792	9
12284	12291	5799	5801	9
12284	12283	12282	12281	9
12284	12285	12286	12281	9
12284	12285	12286	12290	9
12282	12293	7258	7248	9
12282	12293	7258	7260	9
12285	12284	12283	12282	9
12285	12286	12281	12282	9
12282	12281	12286	12290	9
12283	12284	12291	12292	9
12283	12284	12291	5799	9
12283	12284	12285	12286	9
12283	12284	12285	12288	9
12283	12282	12293	12294	9
12283	12282	12293	7258	9
12283	12282	12281	12286	9
12283	12282	12281	12289	9
12285	12284	12291	12292	9
12285	12284	12291	5799	9
12285	12284	12283	12287	9
12285	12286	12281	12289	9
12281	12282	12293	12294	9
12281	12282	12293	7258	9
12281	12282	12283	12287	9
12281	12286	12285	12288	9
12288	12285	12286	12290	9
12289	12281	12286	12290	9
12292	12291	5799	5792	9
12292	12291	5799	5801	9
12294	12293	7258	7248	9
12294	12293	7258	7260	9
13096	13095	13094	13105	9
13099	13095	13094	13105	9
13098	13093	13094	13105	9
13101	13093	13094	13105	9
13105	9281	9275	9278	9
13105	9281	9275	9276	9
13094	13095	13096	13103	9
13099	13095	13096	13103	9
13098	13097	13096	13103	9
13100	13097	13096	13103	9
13103	7796	7789	7790	9
13103	7796	7789	7788	9
13094	13105	9281	9275	9
13094	13105	9281	9282	9
13094	13095	13096	13097	9
13094	13093	13098	13097	9
13094	13093	13098	13102	9
13096	13103	7796	7789	9
13096	13103	7796	7798	9
13093	13094	13095	13096	9
13093	13098	13097	13096	9
13096	13097	13098	13102	9
13095	13094	13105	13106	9
13095	13094	13105	9281	9
13095	13094	13093	13098	9
13095	13094	13093	13101	9
13095	13096	13103	13104	9
13095	13096	13103	7796	9
13095	13096	13097	13098	9
13095	13096	13097	13100	9
13093	13094	13105	13106	9
13093	13094	13105	9281	9
13093	13094	13095	13099	9
13093	13098	13097	13100	9
13097	13096	13103	13104	9
13097	13096	13103	7796	9
13097	13096	13095	13099	9
13097	13098	13093	13101	9
13101	13093	13098	13102	9
13100	13097	13098	13102	9
13106	13105	9281	9275	9
13106	13105	9281	9282	9
13104	13103	7796	7789	9
13104	13103	7796	7798	9
6463	6462	6461	6472	9
6466	6462	6461	6472	9
6465	6460	6461	6472	9
6468	6460	6461	6472	9
6472	4476	4466	4469	9
6472	4476	4466	4465	9
6461	6462	6463	6470	9
6466	6462	6463	6470	9
6465	6464	6463	6470	9
6467	6464	6463	6470	9
6470	6480	6474	6475	9
6470	6480	6474	6477	9
6461	6472	4476	4466	9
6461	6472	4476	4478	9
6461	6462	6463	6464	9
6461	6460	6465	6464	9
6461	6460	6465	6469	9
6463	6470	6480	6474	9
6463	6470	6480	6481	9
6460	6461	6462	6463	9
6460	6465	6464	6463	9
6463	6464	6465	6469	9
6462	6461	6472	6473	9
6462	6461	6472	4476	9
6462	6461	6460	6465	9
6462	6461	6460	6468	9
6462	6463	6470	6471	9
6462	6463	6470	6480	9
6462	6463	6464	6465	9
6462	6463	6464	6467	9
6460	6461	6472	6473	9
6460	6461	6472	4476	9
6460	6461	6462	6466	9
6460	6465	6464	6467	9
6464	6463	6470	6471	9
6464	6463	6470	6480	9
6464	6463	6462	6466	9
6464	6465	6460	6468	9
6468	6460	6465	6469	9
6467	6464	6465	6469	9
6473	6472	4476	4466	9
6473	6472	4476	4478	9
6471	6470	6480	6474	9
6471	6470	6480	6481	9
6798	6797	6796	6807	9
6801	6797	6796	6807	9
6800	6795	6796	6807	9
6803	6795	6796	6807	9
6807	10278	10268	10271	9
6807	10278	10268	10267	9
6796	6797	6798	6805	9
6801	6797	6798	6805	9
6800	6799	6798	6805	9
6802	6799	6798	6805	9
6805	6815	6809	6810	9
6805	6815	6809	6812	9
6796	6807	10278	10268	9
6796	6807	10278	10280	9
6796	6797	6798	6799	9
6796	6795	6800	6799	9
6796	6795	6800	6804	9
6798	6805	6815	6809	9
6798	6805	6815	6816	9
6795	6796	6797	6798	9
6795	6800	6799	6798	9
6798	6799	6800	6804	9
6797	6796	6807	6808	9
6797	6796	6807	10278	9
6797	6796	6795	6800	9
6797	6796	6795	6803	9
6797	6798	6805	6806	9
6797	6798	6805	6815	9
6797	6798	6799	6800	9
6797	6798	6799	6802	9
6795	6796	6807	6808	9
6795	6796	6807	10278	9
6795	6796	6797	6801	9
6795	6800	6799	6802	9
6799	6798	6805	6806	9
6799	6798	6805	6815	9
6799	6798	6797	6801	9
6799	6800	6795	6803	9
6803	6795	6800	6804	9
6802	6799	6800	6804	9
6808	6807	10278	10268	9
6808	6807	10278	10280	9
6806	6805	6815	6809	9
6806	6805	6815	6816	9
2821	2822	2823	2830	9
2826	2822	2823	2830	9
2825	2824	2823	2830	9
2827	2824	2823	2830	9
2830	5473	5467	5468	9
2830	5473	5467	5470	9
2823	2822	2821	2832	9
2826	2822	2821	2832	9
2825	2820	2821	2832	9
2828	2820	2821	2832	9
2823	2830	5473	5467	9
2823	2830	5473	5474	9
2820	2821	2822	2823	9
2820	2825	2824	2823	9
2823	2824	2825	2829	9
2821	2822	2823	2824	9
2821	2820	2825	2824	9
2821	2820	2825	2829	9
2822	2823	2830	2831	9
2822	2823	2830	5473	9
2822	2823	2824	2825	9
2822	2823	2824	2827	9
2822	2821	2832	2834	9
2822	2821	2832	2833	9
2822	2821	2820	2825	9
2822	2821	2820	2828	9
2824	2823	2830	2831	9
2824	2823	2830	5473	9
2824	2823	2822	2826	9
2824	2825	2820	2828	9
2820	2821	2832	2834	9
2820	2821	2832	2833	9
2820	2821	2822	2826	9
2820	2825	2824	2827	9
2827	2824	2825	2829	9
2828	2820	2825	2829	9
2831	2830	5473	5467	9
2831	2830	5473	5474	9
1621	1620	1619	1630	9
1624	1620	1619	1630	9
1623	1618	1619	1630	9
1626	1618	1619	1630	9
1630	6398	6391	6390	9
1630	6398	6391	6392	9
1619	1620	1621	1628	9
1624	1620	1621	1628	9
1623	1622	1621	1628	9
1625	1622	1621	1628	9
1635	1634	1632	1628	9
1639	1634	1632	1628	9
1619	1630	6398	6391	9
1619	1630	6398	6400	9
1619	1620	1621	1622	9
1619	1618	1623	1622	9
1619	1618	1623	1627	9
1634	1632	1628	1621	9
1633	1632	1628	1621	9
1618	1619	1620	1621	9
1618	1623	1622	1621	9
1621	1622	1623	1627	9
1620	1619	1630	1631	9
1620	1619	1630	6398	9
1620	1619	1618	1623	9
1620	1619	1618	1626	9
1620	1621	1628	1629	9
1632	1628	1621	1620	9
1620	1621	1622	1623	9
1620	1621	1622	1625	9
1618	1619	1630	1631	9
1618	1619	1630	6398	9
1618	1619	1620	1624	9
1618	1623	1622	1625	9
1622	1621	1628	1629	9
1632	1628	1621	1622	9
1622	1621	1620	1624	9
1622	1623	1618	1626	9
1626	1618	1623	1627	9
1625	1622	1623	1627	9
1631	1630	6398	6391	9
1631	1630	6398	6400	9
1634	1632	1628	1629	9
1633	1632	1628	1629	9
7322	7321	7320	7331	9
7325	7321	7320	7331	9
7324	7319	7320	7331	9
7327	7319	7320	7331	9
7331	7339	7333	7334	9
7331	7339	7333	7336	9
7320	7321	7322	7329	9
7325	7321	7322	7329	9
7324	7323	7322	7329	9
7326	7323	7322	7329	9
7329	8731	8724	8723	9
7329	8731	8724	8725	9
7320	7331	7339	7333	9
7320	7331	7339	7340	9
7320	7321	7322	7323	9
7320	7319	7324	7323	9
7320	7319	7324	7328	9
7322	7329	8731	8724	9
7322	7329	8731	8733	9
7319	7320	7321	7322	9
7319	7324	7323	7322	9
7322	7323	7324	7328	9
7321	7320	7331	7332	9
7321	7320	7331	7339	9
7321	7320	7319	7324	9
7321	7320	7319	7327	9
7321	7322	7329	7330	9
7321	7322	7329	8731	9
7321	7322	7323	7324	9
7321	7322	7323	7326	9
7319	7320	7331	7332	9
7319	7320	7331	7339	9
7319	7320	7321	7325	9
7319	7324	7323	7326	9
7323	7322	7329	7330	9
7323	7322	7329	8731	9
7323	7322	7321	7325	9
7323	7324	7319	7327	9
7327	7319	7324	7328	9
7326	7323	7324	7328	9
7332	7331	7339	7333	9
7332	7331	7339	7340	9
7330	7329	8731	8724	9
7330	7329	8731	8733	9
12508	12507	12506	12517	9
12511	12507	12506	12517	9
12510	12505	12506	12517	9
12513	12505	12506	12517	9
12517	10526	10519	10520	9
12517	10526	10519	10518	9
12506	12507	12508	12515	9
12511	12507	12508	12515	9
12510	12509	12508	12515	9
12512	12509	12508	12515	9
12515	6194	6184	6183	9
12515	6194	6184	6187	9
12506	12517	10526	10519	9
12506	12517	10526	10528	9
12506	12507	12508	12509	9
12506	12505	12510	12509	9
12506	12505	12510	12514	9
12508	12515	6194	6184	9
12508	12515	6194	6196	9
12505	12506	12507	12508	9
12505	12510	12509	12508	9
12508	12509	12510	12514	9
12507	12506	12517	12518	9
12507	12506	12517	10526	9
12507	12506	12505	12510	9
12507	12506	12505	12513	9
12507	12508	12515	12516	9
12507	12508	12515	6194	9
12507	12508	12509	12510	9
12507	12508	12509	12512	9
12505	12506	12517	12518	9
12505	12506	12517	10526	9
12505	12506	12507	12511	9
12505	12510	12509	12512	9
12509	12508	12515	12516	9
12509	12508	12515	6194	9
12509	12508	12507	12511	9
12509	12510	12505	12513	9
12513	12505	12510	12514	9
12512	12509	12510	12514	9
12518	12517	10526	10519	9
12518	12517	10526	10528	9
12516	12515	6194	6184	9
12516	12515	6194	6196	9
1141	1142	1143	1150	9
1146	1142	1143	1150	9
1145	1144	1143	1150	9
1147	1144	1143	1150	9
1124	1123	1129	1150	9
1126	1123	1129	1150	9
1143	1142	1141	1152	9
1146	1142	1141	1152	9
1145	1140	1141	1152	9
1148	1140	1141	1152	9
1152	6747	6740	6741	9
1152	6747	6740	6739	9
1123	1129	1150	1143	9
1130	1129	1150	1143	9
1140	1141	1142	1143	9
1140	1145	1144	1143	9
1143	1144	1145	1149	9
1141	1152	6747	6740	9
1141	1152	6747	6749	9
1141	1142	1143	1144	9
1141	1140	1145	1144	9
1141	1140	1145	1149	9
1142	1143	1150	1151	9
1129	1150	1143	1142	9
1142	1143	1144	1145	9
1142	1143	1144	1147	9
1142	1141	1152	1153	9
1142	1141	1152	6747	9
1142	1141	1140	1145	9
1142	1141	1140	1148	9
1144	1143	1150	1151	9
1129	1150	1143	1144	9
1144	1143	1142	1146	9
1144	1145	1140	1148	9
1140	1141	1152	1153	9
1140	1141	1152	6747	9
1140	1141	1142	1146	9
1140	1145	1144	1147	9
1147	1144	1145	1149	9
1148	1140	1145	1149	9
1123	1129	1150	1151	9
1130	1129	1150	1151	9
1153	1152	6747	6740	9
1153	1152	6747	6749	9
11304	11303	11302	11313	9
11307	11303	11302	11313	9
11306	11301	11302	11313	9
11309	11301	11302	11313	9
11313	4069	4059	4058	9
11313	4069	4059	4062	9
11302	11303	11304	11311	9
11307	11303	11304	11311	9
11306	11305	11304	11311	9
11308	11305	11304	11311	9
11311	6820	6813	6814	9
11311	6820	6813	6812	9
11302	11313	4069	4059	9
11302	11313	4069	4071	9
11302	11303	11304	11305	9
11302	11301	11306	11305	9
11302	11301	11306	11310	9
11304	11311	6820	6813	9
11304	11311	6820	6822	9
11301	11302	11303	11304	9
11301	11306	11305	11304	9
11304	11305	11306	11310	9
11303	11302	11313	11314	9
11303	11302	11313	4069	9
11303	11302	11301	11306	9
11303	11302	11301	11309	9
11303	11304	11311	11312	9
11303	11304	11311	6820	9
11303	11304	11305	11306	9
11303	11304	11305	11308	9
11301	11302	11313	11314	9
11301	11302	11313	4069	9
11301	11302	11303	11307	9
11301	11306	11305	11308	9
11305	11304	11311	11312	9
11305	11304	11311	6820	9
11305	11304	11303	11307	9
11305	11306	11301	11309	9
11309	11301	11306	11310	9
11308	11305	11306	11310	9
11314	11313	4069	4059	9
11314	11313	4069	4071	9
11312	11311	6820	6813	9
11312	11311	6820	6822	9
1051	1050	1049	1060	9
1054	1050	1049	1060	9
1053	1048	1049	1060	9
1056	1048	1049	1060	9
1034	1031	1037	1060	9
1032	1031	1037	1060	9
1049	1050	1051	1058	9
1054	1050	1051	1058	9
1053	1052	1051	1058	9
1055	1052	1051	1058	9
1155	1154	1160	1058	9
1157	1154	1160	1058	9
1031	1037	1060	1049	9
1038	1037	1060	1049	9
1049	1050	1051	1052	9
1049	1048	1053	1052	9
1049	1048	1053	1057	9
1154	1160	1058	1051	9
1161	1160	1058	1051	9
1048	1049	1050	1051	9
1048	1053	1052	1051	9
1051	1052	1053	1057	9
1050	1049	1060	1061	9
1037	1060	1049	1050	9
1050	1049	1048	1053	9
1050	1049	1048	1056	9
1050	1051	1058	1059	9
1160	1058	1051	1050	9
1050	1051	1052	1053	9
1050	1051	1052	1055	9
1048	1049	1060	1061	9
1037	1060	1049	1048	9
1048	1049	1050	1054	9
1048	1053	1052	1055	9
1052	1051	1058	1059	9
1160	1058	1051	1052	9
1052	1051	1050	1054	9
1052	1053	1048	1056	9
1056	1048	1053	1057	9
1055	1052	1053	1057	9
1031	1037	1060	1061	9
1038	1037	1060	1061	9
1154	1160	1058	1059	9
1161	1160	1058	1059	9
13194	13193	13192	13203	9
13197	13193	13192	13203	9
13196	13191	13192	13203	9
13199	13191	13192	13203	9
13203	8557	8547	8546	9
13203	8557	8547	8550	9
13192	13193	13194	13201	9
13197	13193	13194	13201	9
13196	13195	13194	13201	9
13198	13195	13194	13201	9
13201	8131	8124	8125	9
13201	8131	8124	8123	9
13192	13203	8557	8547	9
13192	13203	8557	8559	9
13192	13193	13194	13195	9
13192	13191	13196	13195	9
13192	13191	13196	13200	9
13194	13201	8131	8124	9
13194	13201	8131	8133	9
13191	13192	13193	13194	9
13191	13196	13195	13194	9
13194	13195	13196	13200	9
13193	13192	13203	13204	9
13193	13192	13203	8557	9
13193	13192	13191	13196	9
13193	13192	13191	13199	9
13193	13194	13201	13202	9
13193	13194	13201	8131	9
13193	13194	13195	13196	9
13193	13194	13195	13198	9
13191	13192	13203	13204	9
13191	13192	13203	8557	9
13191	13192	13193	13197	9
13191	13196	13195	13198	9
13195	13194	13201	13202	9
13195	13194	13201	8131	9
13195	13194	13193	13197	9
13195	13196	13191	13199	9
13199	13191	13196	13200	9
13198	13195	13196	13200	9
13204	13203	8557	8547	9
13204	13203	8557	8559	9
13202	13201	8131	8124	9
13202	13201	8131	8133	9
8283	8284	8285	8292	9
8288	8284	8285	8292	9
8287	8286	8285	8292	9
8289	8286	8285	8292	9
8292	8302	8296	8297	9
8292	8302	8296	8299	9
8285	8284	8283	8294	9
8288	8284	8283	8294	9
8287	8282	8283	8294	9
8290	8282	8283	8294	9
8294	11078	11072	11073	9
8294	11078	11072	11075	9
8285	8292	8302	8296	9
8285	8292	8302	8303	9
8285	8284	8283	8282	9
8285	8286	8287	8282	9
8285	8286	8287	8291	9
8283	8294	11078	11072	9
8283	8294	11078	11079	9
8286	8285	8284	8283	9
8286	8287	8282	8283	9
8283	8282	8287	8291	9
8284	8285	8292	8293	9
8284	8285	8292	8302	9
8284	8285	8286	8287	9
8284	8285	8286	8289	9
8284	8283	8294	8295	9
8284	8283	8294	11078	9
8284	8283	8282	8287	9
8284	8283	8282	8290	9
8286	8285	8292	8293	9
8286	8285	8292	8302	9
8286	8285	8284	8288	9
8286	8287	8282	8290	9
8282	8283	8294	8295	9
8282	8283	8294	11078	9
8282	8283	8284	8288	9
8282	8287	8286	8289	9
8289	8286	8287	8291	9
8290	8282	8287	8291	9
8293	8292	8302	8296	9
8293	8292	8302	8303	9
8295	8294	11078	11072	9
8295	8294	11078	11079	9
9351	9350	9349	9360	9
9354	9350	9349	9360	9
9353	9348	9349	9360	9
9356	9348	9349	9360	9
9360	9368	9362	9363	9
9360	9368	9362	9365	9
9349	9350	9351	9358	9
9354	9350	9351	9358	9
9353	9352	9351	9358	9
9355	9352	9351	9358	9
9358	9171	9161	9164	9
9358	9171	9161	9160	9
9349	9360	9368	9362	9
9349	9360	9368	9369	9
9349	9350	9351	9352	9
9349	9348	9353	9352	9
9349	9348	9353	9357	9
9351	9358	9171	9161	9
9351	9358	9171	9173	9
9348	9349	9350	9351	9
9348	9353	9352	9351	9
9351	9352	9353	9357	9
9350	9349	9360	9361	9
9350	9349	9360	9368	9
9350	9349	9348	9353	9
9350	9349	9348	9356	9
9350	9351	9358	9359	9
9350	9351	9358	9171	9
9350	9351	9352	9353	9
9350	9351	9352	9355	9
9348	9349	9360	9361	9
9348	9349	9360	9368	9
9348	9349	9350	9354	9
9348	9353	9352	9355	9
9352	9351	9358	9359	9
9352	9351	9358	9171	9
9352	9351	9350	9354	9
9352	9353	9348	9356	9
9356	9348	9353	9357	9
9355	9352	9353	9357	9
9361	9360	9368	9362	9
9361	9360	9368	9369	9
9359	9358	9171	9161	9
9359	9358	9171	9173	9
5879	5878	5877	5888	9
5882	5878	5877	5888	9
5881	5876	5877	5888	9
5884	5876	5877	5888	9
5888	8264	8254	8253	9
5888	8264	8254	8257	9
5877	5878	5879	5886	9
5882	5878	5879	5886	9
5881	5880	5879	5886	9
5883	5880	5879	5886	9
5886	5896	5890	5891	9
5886	5896	5890	5893	9
5877	5888	8264	8254	9
5877	5888	8264	8266	9
5877	5878	5879	5880	9
5877	5876	5881	5880	9
5877	5876	5881	5885	9
5879	5886	5896	5890	9
5879	5886	5896	5897	9
5876	5877	5878	5879	9
5876	5881	5880	5879	9
5879	5880	5881	5885	9
5878	5877	5888	5889	9
5878	5877	5888	8264	9
5878	5877	5876	5881	9
5878	5877	5876	5884	9
5878	5879	5886	5887	9
5878	5879	5886	5896	9
5878	5879	5880	5881	9
5878	5879	5880	5883	9
5876	5877	5888	5889	9
5876	5877	5888	8264	9
5876	5877	5878	5882	9
5876	5881	5880	5883	9
5880	5879	5886	5887	9
5880	5879	5886	5896	9
5880	5879	5878	5882	9
5880	5881	5876	5884	9
5884	5876	5881	5885	9
5883	5880	5881	5885	9
5889	5888	8264	8254	9
5889	5888	8264	8266	9
5887	5886	5896	5890	9
5887	5886	5896	5897	9
2883	2882	2881	2892	9
2886	2882	2881	2892	9
2885	2880	2881	2892	9
2888	2880	2881	2892	9
2881	2882	2883	2890	9
2886	2882	2883	2890	9
2885	2884	2883	2890	9
2887	2884	2883	2890	9
2890	5770	5763	5762	9
2890	5770	5763	5764	9
2881	2882	2883	2884	9
2881	2880	2885	2884	9
2881	2880	2885	2889	9
2883	2890	5770	5763	9
2883	2890	5770	5772	9
2880	2881	2882	2883	9
2880	2885	2884	2883	9
2883	2884	2885	2889	9
2882	2881	2892	2893	9
2882	2881	2892	2894	9
2882	2881	2880	2885	9
2882	2881	2880	2888	9
2882	2883	2890	2891	9
2882	2883	2890	5770	9
2882	2883	2884	2885	9
2882	2883	2884	2887	9
2880	2881	2892	2893	9
2880	2881	2892	2894	9
2880	2881	2882	2886	9
2880	2885	2884	2887	9
2884	2883	2890	2891	9
2884	2883	2890	5770	9
2884	2883	2882	2886	9
2884	2885	2880	2888	9
2888	2880	2885	2889	9
2887	2884	2885	2889	9
2891	2890	5770	5763	9
2891	2890	5770	5772	9
4874	4873	4872	4883	9
4877	4873	4872	4883	9
4876	4871	4872	4883	9
4879	4871	4872	4883	9
4883	4891	4885	4886	9
4883	4891	4885	4888	9
4872	4873	4874	4881	9
4877	4873	4874	4881	9
4876	4875	4874	4881	9
4878	4875	4874	4881	9
4881	10335	10328	10329	9
4881	10335	10328	10327	9
4872	4883	4891	4885	9
4872	4883	4891	4892	9
4872	4873	4874	4875	9
4872	4871	4876	4875	9
4872	4871	4876	4880	9
4874	4881	10335	10328	9
4874	4881	10335	10337	9
4871	4872	4873	4874	9
4871	4876	4875	4874	9
4874	4875	4876	4880	9
4873	4872	4883	4884	9
4873	4872	4883	4891	9
4873	4872	4871	4876	9
4873	4872	4871	4879	9
4873	4874	4881	4882	9
4873	4874	4881	10335	9
4873	4874	4875	4876	9
4873	4874	4875	4878	9
4871	4872	4883	4884	9
4871	4872	4883	4891	9
4871	4872	4873	4877	9
4871	4876	4875	4878	9
4875	4874	4881	4882	9
4875	4874	4881	10335	9
4875	4874	4873	4877	9
4875	4876	4871	4879	9
4879	4871	4876	4880	9
4878	4875	4876	4880	9
4884	4883	4891	4885	9
4884	4883	4891	4892	9
4882	4881	10335	10328	9
4882	4881	10335	10337	9
7044	7045	7046	7053	9
7049	7045	7046	7053	9
7048	7047	7046	7053	9
7050	7047	7046	7053	9
7053	6457	6447	6450	9
7053	6457	6447	6446	9
7046	7045	7044	7055	9
7049	7045	7044	7055	9
7048	7043	7044	7055	9
7051	7043	7044	7055	9
7055	7063	7057	7058	9
7055	7063	7057	7060	9
7046	7053	6457	6447	9
7046	7053	6457	6459	9
7046	7045	7044	7043	9
7046	7047	7048	7043	9
7046	7047	7048	7052	9
7044	7055	7063	7057	9
7044	7055	7063	7064	9
7047	7046	7045	7044	9
7047	7048	7043	7044	9
7044	7043	7048	7052	9
7045	7046	7053	7054	9
7045	7046	7053	6457	9
7045	7046	7047	7048	9
7045	7046	7047	7050	9
7045	7044	7055	7056	9
7045	7044	7055	7063	9
7045	7044	7043	7048	9
7045	7044	7043	7051	9
7047	7046	7053	7054	9
7047	7046	7053	6457	9
7047	7046	7045	7049	9
7047	7048	7043	7051	9
7043	7044	7055	7056	9
7043	7044	7055	7063	9
7043	7044	7045	7049	9
7043	7048	7047	7050	9
7050	7047	7048	7052	9
7051	7043	7048	7052	9
7054	7053	6457	6447	9
7054	7053	6457	6459	9
7056	7055	7063	7057	9
7056	7055	7063	7064	9
12522	12521	12520	12531	9
12525	12521	12520	12531	9
12524	12519	12520	12531	9
12527	12519	12520	12531	9
12531	6222	6215	6216	9
12531	6222	6215	6214	9
12520	12521	12522	12529	9
12525	12521	12522	12529	9
12524	12523	12522	12529	9
12526	12523	12522	12529	9
12529	9797	9790	9789	9
12529	9797	9790	9791	9
12520	12531	6222	6215	9
12520	12531	6222	6224	9
12520	12521	12522	12523	9
12520	12519	12524	12523	9
12520	12519	12524	12528	9
12522	12529	9797	9790	9
12522	12529	9797	9799	9
12519	12520	12521	12522	9
12519	12524	12523	12522	9
12522	12523	12524	12528	9
12521	12520	12531	12532	9
12521	12520	12531	6222	9
12521	12520	12519	12524	9
12521	12520	12519	12527	9
12521	12522	12529	12530	9
12521	12522	12529	9797	9
12521	12522	12523	12524	9
12521	12522	12523	12526	9
12519	12520	12531	12532	9
12519	12520	12531	6222	9
12519	12520	12521	12525	9
12519	12524	12523	12526	9
12523	12522	12529	12530	9
12523	12522	12529	9797	9
12523	12522	12521	12525	9
12523	12524	12519	12527	9
12527	12519	12524	12528	9
12526	12523	12524	12528	9
12532	12531	6222	6215	9
12532	12531	6222	6224	9
12530	12529	9797	9790	9
12530	12529	9797	9799	9
9206	9205	9204	9215	9
9209	9205	9204	9215	9
9208	9203	9204	9215	9
9211	9203	9204	9215	9
9215	9223	9217	9220	9
9215	9223	9217	9218	9
9204	9205	9206	9213	9
9209	9205	9206	9213	9
9208	9207	9206	9213	9
9210	9207	9206	9213	9
9213	10586	10576	10575	9
9213	10586	10576	10579	9
9204	9215	9223	9217	9
9204	9215	9223	9224	9
9204	9205	9206	9207	9
9204	9203	9208	9207	9
9204	9203	9208	9212	9
9206	9213	10586	10576	9
9206	9213	10586	10588	9
9203	9204	9205	9206	9
9203	9208	9207	9206	9
9206	9207	9208	9212	9
9205	9204	9215	9216	9
9205	9204	9215	9223	9
9205	9204	9203	9208	9
9205	9204	9203	9211	9
9205	9206	9213	9214	9
9205	9206	9213	10586	9
9205	9206	9207	9208	9
9205	9206	9207	9210	9
9203	9204	9215	9216	9
9203	9204	9215	9223	9
9203	9204	9205	9209	9
9203	9208	9207	9210	9
9207	9206	9213	9214	9
9207	9206	9213	10586	9
9207	9206	9205	9209	9
9207	9208	9203	9211	9
9211	9203	9208	9212	9
9210	9207	9208	9212	9
9216	9215	9223	9217	9
9216	9215	9223	9224	9
9214	9213	10586	10576	9
9214	9213	10586	10588	9
7687	7686	7685	7696	9
7690	7686	7685	7696	9
7689	7684	7685	7696	9
7692	7684	7685	7696	9
7696	7704	7698	7701	9
7696	7704	7698	7699	9
7685	7686	7687	7694	9
7690	7686	7687	7694	9
7689	7688	7687	7694	9
7691	7688	7687	7694	9
7694	10551	10545	10546	9
7694	10551	10545	10548	9
7685	7696	7704	7698	9
7685	7696	7704	7705	9
7685	7686	7687	7688	9
7685	7684	7689	7688	9
7685	7684	7689	7693	9
7687	7694	10551	10545	9
7687	7694	10551	10552	9
7684	7685	7686	7687	9
7684	7689	7688	7687	9
7687	7688	7689	7693	9
7686	7685	7696	7697	9
7686	7685	7696	7704	9
7686	7685	7684	7689	9
7686	7685	7684	7692	9
7686	7687	7694	7695	9
7686	7687	7694	10551	9
7686	7687	7688	7689	9
7686	7687	7688	7691	9
7684	7685	7696	7697	9
7684	7685	7696	7704	9
7684	7685	7686	7690	9
7684	7689	7688	7691	9
7688	7687	7694	7695	9
7688	7687	7694	10551	9
7688	7687	7686	7690	9
7688	7689	7684	7692	9
7692	7684	7689	7693	9
7691	7688	7689	7693	9
7697	7696	7704	7698	9
7697	7696	7704	7705	9
7695	7694	10551	10545	9
7695	7694	10551	10552	9
3451	3452	3453	3460	9
3456	3452	3453	3460	9
3455	3454	3453	3460	9
3457	3454	3453	3460	9
3460	9549	9539	9538	9
3460	9549	9539	9542	9
3453	3452	3451	3462	9
3456	3452	3451	3462	9
3455	3450	3451	3462	9
3458	3450	3451	3462	9
3453	3460	9549	9539	9
3453	3460	9549	9551	9
3450	3451	3452	3453	9
3450	3455	3454	3453	9
3453	3454	3455	3459	9
3451	3452	3453	3454	9
3451	3450	3455	3454	9
3451	3450	3455	3459	9
3452	3453	3460	3461	9
3452	3453	3460	9549	9
3452	3453	3454	3455	9
3452	3453	3454	3457	9
3452	3451	3462	3464	9
3452	3451	3462	3463	9
3452	3451	3450	3455	9
3452	3451	3450	3458	9
3454	3453	3460	3461	9
3454	3453	3460	9549	9
3454	3453	3452	3456	9
3454	3455	3450	3458	9
3450	3451	3462	3464	9
3450	3451	3462	3463	9
3450	3451	3452	3456	9
3450	3455	3454	3457	9
3457	3454	3455	3459	9
3458	3450	3455	3459	9
3461	3460	9549	9539	9
3461	3460	9549	9551	9
11850	11849	11848	11859	9
11853	11849	11848	11859	9
11852	11847	11848	11859	9
11855	11847	11848	11859	9
11859	6923	6913	6912	9
11859	6923	6913	6916	9
11848	11849	11850	11857	9
11853	11849	11850	11857	9
11852	11851	11850	11857	9
11854	11851	11850	11857	9
11857	4984	4974	4973	9
11857	4984	4974	4977	9
11848	11859	6923	6913	9
11848	11859	6923	6925	9
11848	11849	11850	11851	9
11848	11847	11852	11851	9
11848	11847	11852	11856	9
11850	11857	4984	4974	9
11850	11857	4984	4986	9
11847	11848	11849	11850	9
11847	11852	11851	11850	9
11850	11851	11852	11856	9
11849	11848	11859	11860	9
11849	11848	11859	6923	9
11849	11848	11847	11852	9
11849	11848	11847	11855	9
11849	11850	11857	11858	9
11849	11850	11857	4984	9
11849	11850	11851	11852	9
11849	11850	11851	11854	9
11847	11848	11859	11860	9
11847	11848	11859	6923	9
11847	11848	11849	11853	9
11847	11852	11851	11854	9
11851	11850	11857	11858	9
11851	11850	11857	4984	9
11851	11850	11849	11853	9
11851	11852	11847	11855	9
11855	11847	11852	11856	9
11854	11851	11852	11856	9
11860	11859	6923	6913	9
11860	11859	6923	6925	9
11858	11857	4984	4974	9
11858	11857	4984	4986	9
3751	3752	3753	3760	9
3756	3752	3753	3760	9
3755	3754	3753	3760	9
3757	3754	3753	3760	9
3760	11171	11164	11163	9
3760	11171	11164	11165	9
3753	3752	3751	3762	9
3756	3752	3751	3762	9
3755	3750	3751	3762	9
3758	3750	3751	3762	9
3753	3760	11171	11164	9
3753	3760	11171	11173	9
3750	3751	3752	3753	9
3750	3755	3754	3753	9
3753	3754	3755	3759	9
3751	3752	3753	3754	9
3751	3750	3755	3754	9
3751	3750	3755	3759	9
3752	3753	3760	3761	9
3752	3753	3760	11171	9
3752	3753	3754	3755	9
3752	3753	3754	3757	9
3752	3751	3762	3764	9
3752	3751	3762	3763	9
3752	3751	3750	3755	9
3752	3751	3750	3758	9
3754	3753	3760	3761	9
3754	3753	3760	11171	9
3754	3753	3752	3756	9
3754	3755	3750	3758	9
3750	3751	3762	3764	9
3750	3751	3762	3763	9
3750	3751	3752	3756	9
3750	3755	3754	3757	9
3757	3754	3755	3759	9
3758	3750	3755	3759	9
3761	3760	11171	11164	9
3761	3760	11171	11173	9
3483	3482	3481	3492	9
3486	3482	3481	3492	9
3485	3480	3481	3492	9
3488	3480	3481	3492	9
3481	3482	3483	3490	9
3486	3482	3483	3490	9
3485	3484	3483	3490	9
3487	3484	3483	3490	9
3490	9593	9583	9582	9
3490	9593	9583	9586	9
3481	3482	3483	3484	9
3481	3480	3485	3484	9
3481	3480	3485	3489	9
3483	3490	9593	9583	9
3483	3490	9593	9595	9
3480	3481	3482	3483	9
3480	3485	3484	3483	9
3483	3484	3485	3489	9
3482	3481	3492	3493	9
3482	3481	3492	3494	9
3482	3481	3480	3485	9
3482	3481	3480	3488	9
3482	3483	3490	3491	9
3482	3483	3490	9593	9
3482	3483	3484	3485	9
3482	3483	3484	3487	9
3480	3481	3492	3493	9
3480	3481	3492	3494	9
3480	3481	3482	3486	9
3480	3485	3484	3487	9
3484	3483	3490	3491	9
3484	3483	3490	9593	9
3484	3483	3482	3486	9
3484	3485	3480	3488	9
3488	3480	3485	3489	9
3487	3484	3485	3489	9
3491	3490	9593	9583	9
3491	3490	9593	9595	9
2240	2241	2242	2249	9
2245	2241	2242	2249	9
2244	2243	2242	2249	9
2246	2243	2242	2249	9
2223	2222	2228	2249	9
2225	2222	2228	2249	9
2242	2241	2240	2251	9
2245	2241	2240	2251	9
2244	2239	2240	2251	9
2247	2239	2240	2251	9
2251	9558	9552	9553	9
2251	9558	9552	9555	9
2222	2228	2249	2242	9
2229	2228	2249	2242	9
2239	2240	2241	2242	9
2239	2244	2243	2242	9
2242	2243	2244	2248	9
2240	2251	9558	9552	9
2240	2251	9558	9559	9
2240	2241	2242	2243	9
2240	2239	2244	2243	9
2240	2239	2244	2248	9
2241	2242	2249	2250	9
2228	2249	2242	2241	9
2241	2242	2243	2244	9
2241	2242	2243	2246	9
2241	2240	2251	2252	9
2241	2240	2251	9558	9
2241	2240	2239	2244	9
2241	2240	2239	2247	9
2243	2242	2249	2250	9
2228	2249	2242	2243	9
2243	2242	2241	2245	9
2243	2244	2239	2247	9
2239	2240	2251	2252	9
2239	2240	2251	9558	9
2239	2240	2241	2245	9
2239	2244	2243	2246	9
2246	2243	2244	2248	9
2247	2239	2244	2248	9
2222	2228	2249	2250	9
2229	2228	2249	2250	9
2252	2251	9558	9552	9
2252	2251	9558	9559	9
3872	3871	3870	3881	9
3875	3871	3870	3881	9
3874	3869	3870	3881	9
3877	3869	3870	3881	9
3881	7500	7494	7495	9
3881	7500	7494	7497	9
3870	3871	3872	3879	9
3875	3871	3872	3879	9
3874	3873	3872	3879	9
3876	3873	3872	3879	9
3879	3889	3883	3886	9
3879	3889	3883	3884	9
3870	3881	7500	7494	9
3870	3881	7500	7501	9
3870	3871	3872	3873	9
3870	3869	3874	3873	9
3870	3869	3874	3878	9
3872	3879	3889	3883	9
3872	3879	3889	3890	9
3869	3870	3871	3872	9
3869	3874	3873	3872	9
3872	3873	3874	3878	9
3871	3870	3881	3882	9
3871	3870	3881	7500	9
3871	3870	3869	3874	9
3871	3870	3869	3877	9
3871	3872	3879	3880	9
3871	3872	3879	3889	9
3871	3872	3873	3874	9
3871	3872	3873	3876	9
3869	3870	3881	3882	9
3869	3870	3881	7500	9
3869	3870	3871	3875	9
3869	3874	3873	3876	9
3873	3872	3879	3880	9
3873	3872	3879	3889	9
3873	3872	3871	3875	9
3873	3874	3869	3877	9
3877	3869	3874	3878	9
3876	3873	3874	3878	9
3882	3881	7500	7494	9
3882	3881	7500	7501	9
3880	3879	3889	3883	9
3880	3879	3889	3890	9
12452	12451	12450	12461	9
12455	12451	12450	12461	9
12454	12449	12450	12461	9
12457	12449	12450	12461	9
12461	6456	6449	6448	9
12461	6456	6449	6450	9
12450	12451	12452	12459	9
12455	12451	12452	12459	9
12454	12453	12452	12459	9
12456	12453	12452	12459	9
12459	6019	6012	6011	9
12459	6019	6012	6013	9
12450	12461	6456	6449	9
12450	12461	6456	6458	9
12450	12451	12452	12453	9
12450	12449	12454	12453	9
12450	12449	12454	12458	9
12452	12459	6019	6012	9
12452	12459	6019	6021	9
12449	12450	12451	12452	9
12449	12454	12453	12452	9
12452	12453	12454	12458	9
12451	12450	12461	12462	9
12451	12450	12461	6456	9
12451	12450	12449	12454	9
12451	12450	12449	12457	9
12451	12452	12459	12460	9
12451	12452	12459	6019	9
12451	12452	12453	12454	9
12451	12452	12453	12456	9
12449	12450	12461	12462	9
12449	12450	12461	6456	9
12449	12450	12451	12455	9
12449	12454	12453	12456	9
12453	12452	12459	12460	9
12453	12452	12459	6019	9
12453	12452	12451	12455	9
12453	12454	12449	12457	9
12457	12449	12454	12458	9
12456	12453	12454	12458	9
12462	12461	6456	6449	9
12462	12461	6456	6458	9
12460	12459	6019	6012	9
12460	12459	6019	6021	9
8505	8504	8503	8514	9
8508	8504	8503	8514	9
8507	8502	8503	8514	9
8510	8502	8503	8514	9
8514	9441	9435	9438	9
8514	9441	9435	9436	9
8503	8504	8505	8512	9
8508	8504	8505	8512	9
8507	8506	8505	8512	9
8509	8506	8505	8512	9
8512	8522	8516	8517	9
8512	8522	8516	8519	9
8503	8514	9441	9435	9
8503	8514	9441	9442	9
8503	8504	8505	8506	9
8503	8502	8507	8506	9
8503	8502	8507	8511	9
8505	8512	8522	8516	9
8505	8512	8522	8523	9
8502	8503	8504	8505	9
8502	8507	8506	8505	9
8505	8506	8507	8511	9
8504	8503	8514	8515	9
8504	8503	8514	9441	9
8504	8503	8502	8507	9
8504	8503	8502	8510	9
8504	8505	8512	8513	9
8504	8505	8512	8522	9
8504	8505	8506	8507	9
8504	8505	8506	8509	9
8502	8503	8514	8515	9
8502	8503	8514	9441	9
8502	8503	8504	8508	9
8502	8507	8506	8509	9
8506	8505	8512	8513	9
8506	8505	8512	8522	9
8506	8505	8504	8508	9
8506	8507	8502	8510	9
8510	8502	8507	8511	9
8509	8506	8507	8511	9
8515	8514	9441	9435	9
8515	8514	9441	9442	9
8513	8512	8522	8516	9
8513	8512	8522	8523	9
11752	11751	11750	11761	9
11755	11751	11750	11761	9
11754	11749	11750	11761	9
11757	11749	11750	11761	9
11761	4823	4816	4815	9
11761	4823	4816	4817	9
11750	11751	11752	11759	9
11755	11751	11752	11759	9
11754	11753	11752	11759	9
11756	11753	11752	11759	9
11759	10585	10578	10579	9
11759	10585	10578	10577	9
11750	11761	4823	4816	9
11750	11761	4823	4825	9
11750	11751	11752	11753	9
11750	11749	11754	11753	9
11750	11749	11754	11758	9
11752	11759	10585	10578	9
11752	11759	10585	10587	9
11749	11750	11751	11752	9
11749	11754	11753	11752	9
11752	11753	11754	11758	9
11751	11750	11761	11762	9
11751	11750	11761	4823	9
11751	11750	11749	11754	9
11751	11750	11749	11757	9
11751	11752	11759	11760	9
11751	11752	11759	10585	9
11751	11752	11753	11754	9
11751	11752	11753	11756	9
11749	11750	11761	11762	9
11749	11750	11761	4823	9
11749	11750	11751	11755	9
11749	11754	11753	11756	9
11753	11752	11759	11760	9
11753	11752	11759	10585	9
11753	11752	11751	11755	9
11753	11754	11749	11757	9
11757	11749	11754	11758	9
11756	11753	11754	11758	9
11762	11761	4823	4816	9
11762	11761	4823	4825	9
11760	11759	10585	10578	9
11760	11759	10585	10587	9
13432	13431	13430	13441	9
13435	13431	13430	13441	9
13434	13429	13430	13441	9
13437	13429	13430	13441	9
13441	8674	8664	8663	9
13441	8674	8664	8667	9
13430	13431	13432	13439	9
13435	13431	13432	13439	9
13434	13433	13432	13439	9
13436	13433	13432	13439	9
13439	10477	10471	10472	9
13439	10477	10471	10474	9
13430	13441	8674	8664	9
13430	13441	8674	8676	9
13430	13431	13432	13433	9
13430	13429	13434	13433	9
13430	13429	13434	13438	9
13432	13439	10477	10471	9
13432	13439	10477	10478	9
13429	13430	13431	13432	9
13429	13434	13433	13432	9
13432	13433	13434	13438	9
13431	13430	13441	13442	9
13431	13430	13441	8674	9
13431	13430	13429	13434	9
13431	13430	13429	13437	9
13431	13432	13439	13440	9
13431	13432	13439	10477	9
13431	13432	13433	13434	9
13431	13432	13433	13436	9
13429	13430	13441	13442	9
13429	13430	13441	8674	9
13429	13430	13431	13435	9
13429	13434	13433	13436	9
13433	13432	13439	13440	9
13433	13432	13439	10477	9
13433	13432	13431	13435	9
13433	13434	13429	13437	9
13437	13429	13434	13438	9
13436	13433	13434	13438	9
13442	13441	8674	8664	9
13442	13441	8674	8676	9
13440	13439	10477	10471	9
13440	13439	10477	10478	9
3106	3107	3108	3115	9
3111	3107	3108	3115	9
3110	3109	3108	3115	9
3112	3109	3108	3115	9
3115	7826	7816	7815	9
3115	7826	7816	7819	9
3108	3107	3106	3117	9
3111	3107	3106	3117	9
3110	3105	3106	3117	9
3113	3105	3106	3117	9
3108	3115	7826	7816	9
3108	3115	7826	7828	9
3105	3106	3107	3108	9
3105	3110	3109	3108	9
3108	3109	3110	3114	9
3106	3107	3108	3109	9
3106	3105	3110	3109	9
3106	3105	3110	3114	9
3107	3108	3115	3116	9
3107	3108	3115	7826	9
3107	3108	3109	3110	9
3107	3108	3109	3112	9
3107	3106	3117	3118	9
3107	3106	3117	3119	9
3107	3106	3105	3110	9
3107	3106	3105	3113	9
3109	3108	3115	3116	9
3109	3108	3115	7826	9
3109	3108	3107	3111	9
3109	3110	3105	3113	9
3105	3106	3117	3118	9
3105	3106	3117	3119	9
3105	3106	3107	3111	9
3105	3110	3109	3112	9
3112	3109	3110	3114	9
3113	3105	3110	3114	9
3116	3115	7826	7816	9
3116	3115	7826	7828	9
3618	3617	3616	3627	9
3621	3617	3616	3627	9
3620	3615	3616	3627	9
3623	3615	3616	3627	9
3616	3617	3618	3625	9
3621	3617	3618	3625	9
3620	3619	3618	3625	9
3622	3619	3618	3625	9
3625	10789	10782	10781	9
3625	10789	10782	10783	9
3616	3617	3618	3619	9
3616	3615	3620	3619	9
3616	3615	3620	3624	9
3618	3625	10789	10782	9
3618	3625	10789	10791	9
3615	3616	3617	3618	9
3615	3620	3619	3618	9
3618	3619	3620	3624	9
3617	3616	3627	3629	9
3617	3616	3627	3628	9
3617	3616	3615	3620	9
3617	3616	3615	3623	9
3617	3618	3625	3626	9
3617	3618	3625	10789	9
3617	3618	3619	3620	9
3617	3618	3619	3622	9
3615	3616	3627	3629	9
3615	3616	3627	3628	9
3615	3616	3617	3621	9
3615	3620	3619	3622	9
3619	3618	3625	3626	9
3619	3618	3625	10789	9
3619	3618	3617	3621	9
3619	3620	3615	3623	9
3623	3615	3620	3624	9
3622	3619	3620	3624	9
3626	3625	10789	10782	9
3626	3625	10789	10791	9
12060	12059	12058	12069	9
12063	12059	12058	12069	9
12062	12057	12058	12069	9
12065	12057	12058	12069	9
12069	7825	7818	7819	9
12069	7825	7818	7817	9
12058	12059	12060	12067	9
12063	12059	12060	12067	9
12062	12061	12060	12067	9
12064	12061	12060	12067	9
12067	5479	5469	5468	9
12067	5479	5469	5472	9
12058	12069	7825	7818	9
12058	12069	7825	7827	9
12058	12059	12060	12061	9
12058	12057	12062	12061	9
12058	12057	12062	12066	9
12060	12067	5479	5469	9
12060	12067	5479	5481	9
12057	12058	12059	12060	9
12057	12062	12061	12060	9
12060	12061	12062	12066	9
12059	12058	12069	12070	9
12059	12058	12069	7825	9
12059	12058	12057	12062	9
12059	12058	12057	12065	9
12059	12060	12067	12068	9
12059	12060	12067	5479	9
12059	12060	12061	12062	9
12059	12060	12061	12064	9
12057	12058	12069	12070	9
12057	12058	12069	7825	9
12057	12058	12059	12063	9
12057	12062	12061	12064	9
12061	12060	12067	12068	9
12061	12060	12067	5479	9
12061	12060	12059	12063	9
12061	12062	12057	12065	9
12065	12057	12062	12066	9
12064	12061	12062	12066	9
12070	12069	7825	7818	9
12070	12069	7825	7827	9
12068	12067	5479	5469	9
12068	12067	5479	5481	9
13164	13165	13166	13173	9
13169	13165	13166	13173	9
13168	13167	13166	13173	9
13170	13167	13166	13173	9
13173	8630	8620	8623	9
13173	8630	8620	8619	9
13166	13165	13164	13175	9
13169	13165	13164	13175	9
13168	13163	13164	13175	9
13171	13163	13164	13175	9
13175	7986	7976	7975	9
13175	7986	7976	7979	9
13166	13173	8630	8620	9
13166	13173	8630	8632	9
13163	13164	13165	13166	9
13163	13168	13167	13166	9
13166	13167	13168	13172	9
13164	13175	7986	7976	9
13164	13175	7986	7988	9
13164	13165	13166	13167	9
13164	13163	13168	13167	9
13164	13163	13168	13172	9
13165	13166	13173	13174	9
13165	13166	13173	8630	9
13165	13166	13167	13168	9
13165	13166	13167	13170	9
13165	13164	13175	13176	9
13165	13164	13175	7986	9
13165	13164	13163	13168	9
13165	13164	13163	13171	9
13167	13166	13173	13174	9
13167	13166	13173	8630	9
13167	13166	13165	13169	9
13167	13168	13163	13171	9
13163	13164	13175	13176	9
13163	13164	13175	7986	9
13163	13164	13165	13169	9
13163	13168	13167	13170	9
13170	13167	13168	13172	9
13171	13163	13168	13172	9
13174	13173	8630	8620	9
13174	13173	8630	8632	9
13176	13175	7986	7976	9
13176	13175	7986	7988	9
6055	6054	6053	6064	9
6058	6054	6053	6064	9
6057	6052	6053	6064	9
6060	6052	6053	6064	9
6064	6072	6066	6069	9
6064	6072	6066	6067	9
6053	6054	6055	6062	9
6058	6054	6055	6062	9
6057	6056	6055	6062	9
6059	6056	6055	6062	9
6062	6320	6314	6317	9
6062	6320	6314	6315	9
6053	6064	6072	6066	9
6053	6064	6072	6073	9
6053	6054	6055	6056	9
6053	6052	6057	6056	9
6053	6052	6057	6061	9
6055	6062	6320	6314	9
6055	6062	6320	6321	9
6052	6053	6054	6055	9
6052	6057	6056	6055	9
6055	6056	6057	6061	9
6054	6053	6064	6065	9
6054	6053	6064	6072	9
6054	6053	6052	6057	9
6054	6053	6052	6060	9
6054	6055	6062	6063	9
6054	6055	6062	6320	9
6054	6055	6056	6057	9
6054	6055	6056	6059	9
6052	6053	6064	6065	9
6052	6053	6064	6072	9
6052	6053	6054	6058	9
6052	6057	6056	6059	9
6056	6055	6062	6063	9
6056	6055	6062	6320	9
6056	6055	6054	6058	9
6056	6057	6052	6060	9
6060	6052	6057	6061	9
6059	6056	6057	6061	9
6065	6064	6072	6066	9
6065	6064	6072	6073	9
6063	6062	6320	6314	9
6063	6062	6320	6321	9
3541	3542	3543	3550	9
3546	3542	3543	3550	9
3545	3544	3543	3550	9
3547	3544	3543	3550	9
3550	9928	9921	9922	9
3550	9928	9921	9920	9
3543	3542	3541	3552	9
3546	3542	3541	3552	9
3545	3540	3541	3552	9
3548	3540	3541	3552	9
3543	3550	9928	9921	9
3543	3550	9928	9930	9
3540	3541	3542	3543	9
3540	3545	3544	3543	9
3543	3544	3545	3549	9
3541	3542	3543	3544	9
3541	3540	3545	3544	9
3541	3540	3545	3549	9
3542	3543	3550	3551	9
3542	3543	3550	9928	9
3542	3543	3544	3545	9
3542	3543	3544	3547	9
3542	3541	3552	3553	9
3542	3541	3552	3554	9
3542	3541	3540	3545	9
3542	3541	3540	3548	9
3544	3543	3550	3551	9
3544	3543	3550	9928	9
3544	3543	3542	3546	9
3544	3545	3540	3548	9
3540	3541	3552	3553	9
3540	3541	3552	3554	9
3540	3541	3542	3546	9
3540	3545	3544	3547	9
3547	3544	3545	3549	9
3548	3540	3545	3549	9
3551	3550	9928	9921	9
3551	3550	9928	9930	9
8432	8431	8430	8441	9
8435	8431	8430	8441	9
8434	8429	8430	8441	9
8437	8429	8430	8441	9
8441	8449	8443	8444	9
8441	8449	8443	8446	9
8430	8431	8432	8439	9
8435	8431	8432	8439	9
8434	8433	8432	8439	9
8436	8433	8432	8439	9
8439	5625	5615	5618	9
8439	5625	5615	5614	9
8430	8441	8449	8443	9
8430	8441	8449	8450	9
8430	8431	8432	8433	9
8430	8429	8434	8433	9
8430	8429	8434	8438	9
8432	8439	5625	5615	9
8432	8439	5625	5627	9
8429	8430	8431	8432	9
8429	8434	8433	8432	9
8432	8433	8434	8438	9
8431	8430	8441	8442	9
8431	8430	8441	8449	9
8431	8430	8429	8434	9
8431	8430	8429	8437	9
8431	8432	8439	8440	9
8431	8432	8439	5625	9
8431	8432	8433	8434	9
8431	8432	8433	8436	9
8429	8430	8441	8442	9
8429	8430	8441	8449	9
8429	8430	8431	8435	9
8429	8434	8433	8436	9
8433	8432	8439	8440	9
8433	8432	8439	5625	9
8433	8432	8431	8435	9
8433	8434	8429	8437	9
8437	8429	8434	8438	9
8436	8433	8434	8438	9
8442	8441	8449	8443	9
8442	8441	8449	8450	9
8440	8439	5625	5615	9
8440	8439	5625	5627	9
7466	7467	7468	7475	9
7471	7467	7468	7475	9
7470	7469	7468	7475	9
7472	7469	7468	7475	9
7475	8317	8311	8312	9
7475	8317	8311	8314	9
7468	7467	7466	7477	9
7471	7467	7466	7477	9
7470	7465	7466	7477	9
7473	7465	7466	7477	9
7477	7485	7479	7482	9
7477	7485	7479	7480	9
7468	7475	8317	8311	9
7468	7475	8317	8318	9
7468	7467	7466	7465	9
7468	7469	7470	7465	9
7468	7469	7470	7474	9
7466	7477	7485	7479	9
7466	7477	7485	7486	9
7469	7468	7467	7466	9
7469	7470	7465	7466	9
7466	7465	7470	7474	9
7467	7468	7475	7476	9
7467	7468	7475	8317	9
7467	7468	7469	7470	9
7467	7468	7469	7472	9
7467	7466	7477	7478	9
7467	7466	7477	7485	9
7467	7466	7465	7470	9
7467	7466	7465	7473	9
7469	7468	7475	7476	9
7469	7468	7475	8317	9
7469	7468	7467	7471	9
7469	7470	7465	7473	9
7465	7466	7477	7478	9
7465	7466	7477	7485	9
7465	7466	7467	7471	9
7465	7470	7469	7472	9
7472	7469	7470	7474	9
7473	7465	7470	7474	9
7476	7475	8317	8311	9
7476	7475	8317	8318	9
7478	7477	7485	7479	9
7478	7477	7485	7486	9
13262	13263	13264	13271	9
13267	13263	13264	13271	9
13266	13265	13264	13271	9
13268	13265	13264	13271	9
13271	10862	10855	10854	9
13271	10862	10855	10856	9
13264	13263	13262	13273	9
13267	13263	13262	13273	9
13266	13261	13262	13273	9
13269	13261	13262	13273	9
13273	8204	8197	8196	9
13273	8204	8197	8198	9
13264	13271	10862	10855	9
13264	13271	10862	10864	9
13261	13262	13263	13264	9
13261	13266	13265	13264	9
13264	13265	13266	13270	9
13262	13273	8204	8197	9
13262	13273	8204	8206	9
13262	13263	13264	13265	9
13262	13261	13266	13265	9
13262	13261	13266	13270	9
13263	13264	13271	13272	9
13263	13264	13271	10862	9
13263	13264	13265	13266	9
13263	13264	13265	13268	9
13263	13262	13273	13274	9
13263	13262	13273	8204	9
13263	13262	13261	13266	9
13263	13262	13261	13269	9
13265	13264	13271	13272	9
13265	13264	13271	10862	9
13265	13264	13263	13267	9
13265	13266	13261	13269	9
13261	13262	13273	13274	9
13261	13262	13273	8204	9
13261	13262	13263	13267	9
13261	13266	13265	13268	9
13268	13265	13266	13270	9
13269	13261	13266	13270	9
13272	13271	10862	10855	9
13272	13271	10862	10864	9
13274	13273	8204	8197	9
13274	13273	8204	8206	9
4598	4597	4596	4607	9
4601	4597	4596	4607	9
4600	4595	4596	4607	9
4603	4595	4596	4607	9
4607	4615	4609	4610	9
4607	4615	4609	4612	9
4596	4597	4598	4605	9
4601	4597	4598	4605	9
4600	4599	4598	4605	9
4602	4599	4598	4605	9
4605	6232	6226	6229	9
4605	6232	6226	6227	9
4596	4607	4615	4609	9
4596	4607	4615	4616	9
4596	4597	4598	4599	9
4596	4595	4600	4599	9
4596	4595	4600	4604	9
4598	4605	6232	6226	9
4598	4605	6232	6233	9
4595	4596	4597	4598	9
4595	4600	4599	4598	9
4598	4599	4600	4604	9
4597	4596	4607	4608	9
4597	4596	4607	4615	9
4597	4596	4595	4600	9
4597	4596	4595	4603	9
4597	4598	4605	4606	9
4597	4598	4605	6232	9
4597	4598	4599	4600	9
4597	4598	4599	4602	9
4595	4596	4607	4608	9
4595	4596	4607	4615	9
4595	4596	4597	4601	9
4595	4600	4599	4602	9
4599	4598	4605	4606	9
4599	4598	4605	6232	9
4599	4598	4597	4601	9
4599	4600	4595	4603	9
4603	4595	4600	4604	9
4602	4599	4600	4604	9
4608	4607	4615	4609	9
4608	4607	4615	4616	9
4606	4605	6232	6226	9
4606	4605	6232	6233	9
13738	13739	13740	13747	9
13743	13739	13740	13747	9
13742	13741	13740	13747	9
13744	13741	13740	13747	9
13747	11084	11074	11073	9
13747	11084	11074	11077	9
13740	13739	13738	13749	9
13743	13739	13738	13749	9
13742	13737	13738	13749	9
13745	13737	13738	13749	9
13749	10935	10928	10929	9
13749	10935	10928	10927	9
13740	13747	11084	11074	9
13740	13747	11084	11086	9
13737	13738	13739	13740	9
13737	13742	13741	13740	9
13740	13741	13742	13746	9
13738	13749	10935	10928	9
13738	13749	10935	10937	9
13738	13739	13740	13741	9
13738	13737	13742	13741	9
13738	13737	13742	13746	9
13739	13740	13747	13748	9
13739	13740	13747	11084	9
13739	13740	13741	13742	9
13739	13740	13741	13744	9
13739	13738	13749	13750	9
13739	13738	13749	10935	9
13739	13738	13737	13742	9
13739	13738	13737	13745	9
13741	13740	13747	13748	9
13741	13740	13747	11084	9
13741	13740	13739	13743	9
13741	13742	13737	13745	9
13737	13738	13749	13750	9
13737	13738	13749	10935	9
13737	13738	13739	13743	9
13737	13742	13741	13744	9
13744	13741	13742	13746	9
13745	13737	13742	13746	9
13748	13747	11084	11074	9
13748	13747	11084	11086	9
13750	13749	10935	10928	9
13750	13749	10935	10937	9
13250	13249	13248	13259	9
13253	13249	13248	13259	9
13252	13247	13248	13259	9
13255	13247	13248	13259	9
13259	10760	10753	10752	9
13259	10760	10753	10754	9
13248	13249	13250	13257	9
13253	13249	13250	13257	9
13252	13251	13250	13257	9
13254	13251	13250	13257	9
13257	8205	8195	8198	9
13257	8205	8195	8194	9
13248	13259	10760	10753	9
13248	13259	10760	10762	9
13248	13249	13250	13251	9
13248	13247	13252	13251	9
13248	13247	13252	13256	9
13250	13257	8205	8195	9
13250	13257	8205	8207	9
13247	13248	13249	13250	9
13247	13252	13251	13250	9
13250	13251	13252	13256	9
13249	13248	13259	13260	9
13249	13248	13259	10760	9
13249	13248	13247	13252	9
13249	13248	13247	13255	9
13249	13250	13257	13258	9
13249	13250	13257	8205	9
13249	13250	13251	13252	9
13249	13250	13251	13254	9
13247	13248	13259	13260	9
13247	13248	13259	10760	9
13247	13248	13249	13253	9
13247	13252	13251	13254	9
13251	13250	13257	13258	9
13251	13250	13257	8205	9
13251	13250	13249	13253	9
13251	13252	13247	13255	9
13255	13247	13252	13256	9
13254	13251	13252	13256	9
13260	13259	10760	10753	9
13260	13259	10760	10762	9
13258	13257	8205	8195	9
13258	13257	8205	8207	9
2040	2039	2038	2049	9
2043	2039	2038	2049	9
2042	2037	2038	2049	9
2045	2037	2038	2049	9
2021	2020	2026	2049	9
2023	2020	2026	2049	9
2038	2039	2040	2047	9
2043	2039	2040	2047	9
2042	2041	2040	2047	9
2044	2041	2040	2047	9
2047	10746	10736	10739	9
2047	10746	10736	10735	9
2020	2026	2049	2038	9
2027	2026	2049	2038	9
2038	2039	2040	2041	9
2038	2037	2042	2041	9
2038	2037	2042	2046	9
2040	2047	10746	10736	9
2040	2047	10746	10748	9
2037	2038	2039	2040	9
2037	2042	2041	2040	9
2040	2041	2042	2046	9
2039	2038	2049	2050	9
2026	2049	2038	2039	9
2039	2038	2037	2042	9
2039	2038	2037	2045	9
2039	2040	2047	2048	9
2039	2040	2047	10746	9
2039	2040	2041	2042	9
2039	2040	2041	2044	9
2037	2038	2049	2050	9
2026	2049	2038	2037	9
2037	2038	2039	2043	9
2037	2042	2041	2044	9
2041	2040	2047	2048	9
2041	2040	2047	10746	9
2041	2040	2039	2043	9
2041	2042	2037	2045	9
2045	2037	2042	2046	9
2044	2041	2042	2046	9
2020	2026	2049	2050	9
2027	2026	2049	2050	9
2048	2047	10746	10736	9
2048	2047	10746	10748	9
12044	12045	12046	12053	9
12049	12045	12046	12053	9
12048	12047	12046	12053	9
12050	12047	12046	12053	9
12053	5464	5454	5457	9
12053	5464	5454	5453	9
12046	12045	12044	12055	9
12049	12045	12044	12055	9
12048	12043	12044	12055	9
12051	12043	12044	12055	9
12055	10395	10385	10384	9
12055	10395	10385	10388	9
12046	12053	5464	5454	9
12046	12053	5464	5466	9
12046	12045	12044	12043	9
12046	12047	12048	12043	9
12046	12047	12048	12052	9
12044	12055	10395	10385	9
12044	12055	10395	10397	9
12047	12046	12045	12044	9
12047	12048	12043	12044	9
12044	12043	12048	12052	9
12045	12046	12053	12054	9
12045	12046	12053	5464	9
12045	12046	12047	12048	9
12045	12046	12047	12050	9
12045	12044	12055	12056	9
12045	12044	12055	10395	9
12045	12044	12043	12048	9
12045	12044	12043	12051	9
12047	12046	12053	12054	9
12047	12046	12053	5464	9
12047	12046	12045	12049	9
12047	12048	12043	12051	9
12043	12044	12055	12056	9
12043	12044	12055	10395	9
12043	12044	12045	12049	9
12043	12048	12047	12050	9
12050	12047	12048	12052	9
12051	12043	12048	12052	9
12054	12053	5464	5454	9
12054	12053	5464	5466	9
12056	12055	10395	10385	9
12056	12055	10395	10397	9
4482	4481	4480	4491	9
4485	4481	4480	4491	9
4484	4479	4480	4491	9
4487	4479	4480	4491	9
4491	8528	8518	8517	9
4491	8528	8518	8521	9
4480	4481	4482	4489	9
4485	4481	4482	4489	9
4484	4483	4482	4489	9
4486	4483	4482	4489	9
4489	4499	4493	4494	9
4489	4499	4493	4496	9
4480	4491	8528	8518	9
4480	4491	8528	8530	9
4480	4481	4482	4483	9
4480	4479	4484	4483	9
4480	4479	4484	4488	9
4482	4489	4499	4493	9
4482	4489	4499	4500	9
4479	4480	4481	4482	9
4479	4484	4483	4482	9
4482	4483	4484	4488	9
4481	4480	4491	4492	9
4481	4480	4491	8528	9
4481	4480	4479	4484	9
4481	4480	4479	4487	9
4481	4482	4489	4490	9
4481	4482	4489	4499	9
4481	4482	4483	4484	9
4481	4482	4483	4486	9
4479	4480	4491	4492	9
4479	4480	4491	8528	9
4479	4480	4481	4485	9
4479	4484	4483	4486	9
4483	4482	4489	4490	9
4483	4482	4489	4499	9
4483	4482	4481	4485	9
4483	4484	4479	4487	9
4487	4479	4484	4488	9
4486	4483	4484	4488	9
4492	4491	8528	8518	9
4492	4491	8528	8530	9
4490	4489	4499	4493	9
4490	4489	4499	4500	9
925	926	927	934	9
930	926	927	934	9
929	928	927	934	9
931	928	927	934	9
934	8214	8208	8209	9
934	8214	8208	8211	9
927	926	925	936	9
930	926	925	936	9
929	924	925	936	9
932	924	925	936	9
910	907	913	936	9
908	907	913	936	9
927	934	8214	8208	9
927	934	8214	8215	9
924	925	926	927	9
924	929	928	927	9
927	928	929	933	9
907	913	936	925	9
914	913	936	925	9
925	926	927	928	9
925	924	929	928	9
925	924	929	933	9
926	927	934	935	9
926	927	934	8214	9
926	927	928	929	9
926	927	928	931	9
926	925	936	937	9
913	936	925	926	9
926	925	924	929	9
926	925	924	932	9
928	927	934	935	9
928	927	934	8214	9
928	927	926	930	9
928	929	924	932	9
924	925	936	937	9
913	936	925	924	9
924	925	926	930	9
924	929	928	931	9
931	928	929	933	9
932	924	929	933	9
935	934	8214	8208	9
935	934	8214	8215	9
907	913	936	937	9
914	913	936	937	9
2913	2912	2911	2922	9
2916	2912	2911	2922	9
2915	2910	2911	2922	9
2918	2910	2911	2922	9
2911	2912	2913	2920	9
2916	2912	2913	2920	9
2915	2914	2913	2920	9
2917	2914	2913	2920	9
2920	6005	5995	5998	9
2920	6005	5995	5994	9
2911	2912	2913	2914	9
2911	2910	2915	2914	9
2911	2910	2915	2919	9
2913	2920	6005	5995	9
2913	2920	6005	6007	9
2910	2911	2912	2913	9
2910	2915	2914	2913	9
2913	2914	2915	2919	9
2912	2911	2922	2923	9
2912	2911	2922	2924	9
2912	2911	2910	2915	9
2912	2911	2910	2918	9
2912	2913	2920	2921	9
2912	2913	2920	6005	9
2912	2913	2914	2915	9
2912	2913	2914	2917	9
2910	2911	2922	2923	9
2910	2911	2922	2924	9
2910	2911	2912	2916	9
2910	2915	2914	2917	9
2914	2913	2920	2921	9
2914	2913	2920	6005	9
2914	2913	2912	2916	9
2914	2915	2910	2918	9
2918	2910	2915	2919	9
2917	2914	2915	2919	9
2921	2920	6005	5995	9
2921	2920	6005	6007	9
5982	5981	5980	5991	9
5985	5981	5980	5991	9
5984	5979	5980	5991	9
5987	5979	5980	5991	9
5991	5999	5993	5996	9
5991	5999	5993	5994	9
5980	5981	5982	5989	9
5985	5981	5982	5989	9
5984	5983	5982	5989	9
5986	5983	5982	5989	9
5989	6282	6272	6275	9
5989	6282	6272	6271	9
5980	5991	5999	5993	9
5980	5991	5999	6000	9
5980	5981	5982	5983	9
5980	5979	5984	5983	9
5980	5979	5984	5988	9
5982	5989	6282	6272	9
5982	5989	6282	6284	9
5979	5980	5981	5982	9
5979	5984	5983	5982	9
5982	5983	5984	5988	9
5981	5980	5991	5992	9
5981	5980	5991	5999	9
5981	5980	5979	5984	9
5981	5980	5979	5987	9
5981	5982	5989	5990	9
5981	5982	5989	6282	9
5981	5982	5983	5984	9
5981	5982	5983	5986	9
5979	5980	5991	5992	9
5979	5980	5991	5999	9
5979	5980	5981	5985	9
5979	5984	5983	5986	9
5983	5982	5989	5990	9
5983	5982	5989	6282	9
5983	5982	5981	5985	9
5983	5984	5979	5987	9
5987	5979	5984	5988	9
5986	5983	5984	5988	9
5992	5991	5999	5993	9
5992	5991	5999	6000	9
5990	5989	6282	6272	9
5990	5989	6282	6284	9
12872	12871	12870	12881	9
12875	12871	12870	12881	9
12874	12869	12870	12881	9
12877	12869	12870	12881	9
12881	7097	7090	7091	9
12881	7097	7090	7089	9
12870	12871	12872	12879	9
12875	12871	12872	12879	9
12874	12873	12872	12879	9
12876	12873	12872	12879	9
12879	10364	10357	10358	9
12879	10364	10357	10356	9
12870	12881	7097	7090	9
12870	12881	7097	7099	9
12870	12871	12872	12873	9
12870	12869	12874	12873	9
12870	12869	12874	12878	9
12872	12879	10364	10357	9
12872	12879	10364	10366	9
12869	12870	12871	12872	9
12869	12874	12873	12872	9
12872	12873	12874	12878	9
12871	12870	12881	12882	9
12871	12870	12881	7097	9
12871	12870	12869	12874	9
12871	12870	12869	12877	9
12871	12872	12879	12880	9
12871	12872	12879	10364	9
12871	12872	12873	12874	9
12871	12872	12873	12876	9
12869	12870	12881	12882	9
12869	12870	12881	7097	9
12869	12870	12871	12875	9
12869	12874	12873	12876	9
12873	12872	12879	12880	9
12873	12872	12879	10364	9
12873	12872	12871	12875	9
12873	12874	12869	12877	9
12877	12869	12874	12878	9
12876	12873	12874	12878	9
12882	12881	7097	7090	9
12882	12881	7097	7099	9
12880	12879	10364	10357	9
12880	12879	10364	10366	9
3661	3662	3663	3670	9
3666	3662	3663	3670	9
3665	3664	3663	3670	9
3667	3664	3663	3670	9
3670	10980	10970	10973	9
3670	10980	10970	10969	9
3663	3662	3661	3672	9
3666	3662	3661	3672	9
3665	3660	3661	3672	9
3668	3660	3661	3672	9
3663	3670	10980	10970	9
3663	3670	10980	10982	9
3660	3661	3662	3663	9
3660	3665	3664	3663	9
3663	3664	3665	3669	9
3661	3662	3663	3664	9
3661	3660	3665	3664	9
3661	3660	3665	3669	9
3662	3663	3670	3671	9
3662	3663	3670	10980	9
3662	3663	3664	3665	9
3662	3663	3664	3667	9
3662	3661	3672	3673	9
3662	3661	3672	3674	9
3662	3661	3660	3665	9
3662	3661	3660	3668	9
3664	3663	3670	3671	9
3664	3663	3670	10980	9
3664	3663	3662	3666	9
3664	3665	3660	3668	9
3660	3661	3672	3673	9
3660	3661	3672	3674	9
3660	3661	3662	3666	9
3660	3665	3664	3667	9
3667	3664	3665	3669	9
3668	3660	3665	3669	9
3671	3670	10980	10970	9
3671	3670	10980	10982	9
3706	3707	3708	3715	9
3711	3707	3708	3715	9
3710	3709	3708	3715	9
3712	3709	3708	3715	9
3715	11004	10998	11001	9
3715	11004	10998	10999	9
3708	3707	3706	3717	9
3711	3707	3706	3717	9
3710	3705	3706	3717	9
3713	3705	3706	3717	9
3708	3715	11004	10998	9
3708	3715	11004	11005	9
3705	3706	3707	3708	9
3705	3710	3709	3708	9
3708	3709	3710	3714	9
3706	3707	3708	3709	9
3706	3705	3710	3709	9
3706	3705	3710	3714	9
3707	3708	3715	3716	9
3707	3708	3715	11004	9
3707	3708	3709	3710	9
3707	3708	3709	3712	9
3707	3706	3717	3718	9
3707	3706	3717	3719	9
3707	3706	3705	3710	9
3707	3706	3705	3713	9
3709	3708	3715	3716	9
3709	3708	3715	11004	9
3709	3708	3707	3711	9
3709	3710	3705	3713	9
3705	3706	3717	3718	9
3705	3706	3717	3719	9
3705	3706	3707	3711	9
3705	3710	3709	3712	9
3712	3709	3710	3714	9
3713	3705	3710	3714	9
3716	3715	11004	10998	9
3716	3715	11004	11005	9
4393	4394	4395	4402	9
4398	4394	4395	4402	9
4397	4396	4395	4402	9
4399	4396	4395	4402	9
4402	4412	4406	4407	9
4402	4412	4406	4409	9
4395	4394	4393	4404	9
4398	4394	4393	4404	9
4397	4392	4393	4404	9
4400	4392	4393	4404	9
4404	10995	10985	10988	9
4404	10995	10985	10984	9
4395	4402	4412	4406	9
4395	4402	4412	4413	9
4392	4393	4394	4395	9
4392	4397	4396	4395	9
4395	4396	4397	4401	9
4393	4404	10995	10985	9
4393	4404	10995	10997	9
4393	4394	4395	4396	9
4393	4392	4397	4396	9
4393	4392	4397	4401	9
4394	4395	4402	4403	9
4394	4395	4402	4412	9
4394	4395	4396	4397	9
4394	4395	4396	4399	9
4394	4393	4404	4405	9
4394	4393	4404	10995	9
4394	4393	4392	4397	9
4394	4393	4392	4400	9
4396	4395	4402	4403	9
4396	4395	4402	4412	9
4396	4395	4394	4398	9
4396	4397	4392	4400	9
4392	4393	4404	4405	9
4392	4393	4404	10995	9
4392	4393	4394	4398	9
4392	4397	4396	4399	9
4399	4396	4397	4401	9
4400	4392	4397	4401	9
4403	4402	4412	4406	9
4403	4402	4412	4413	9
4405	4404	10995	10985	9
4405	4404	10995	10997	9
5646	5645	5644	5655	9
5649	5645	5644	5655	9
5648	5643	5644	5655	9
5651	5643	5644	5655	9
5655	7797	7787	7786	9
5655	7797	7787	7790	9
5644	5645	5646	5653	9
5649	5645	5646	5653	9
5648	5647	5646	5653	9
5650	5647	5646	5653	9
5653	5663	5657	5660	9
5653	5663	5657	5658	9
5644	5655	7797	7787	9
5644	5655	7797	7799	9
5644	5645	5646	5647	9
5644	5643	5648	5647	9
5644	5643	5648	5652	9
5646	5653	5663	5657	9
5646	5653	5663	5664	9
5643	5644	5645	5646	9
5643	5648	5647	5646	9
5646	5647	5648	5652	9
5645	5644	5655	5656	9
5645	5644	5655	7797	9
5645	5644	5643	5648	9
5645	5644	5643	5651	9
5645	5646	5653	5654	9
5645	5646	5653	5663	9
5645	5646	5647	5648	9
5645	5646	5647	5650	9
5643	5644	5655	5656	9
5643	5644	5655	7797	9
5643	5644	5645	5649	9
5643	5648	5647	5650	9
5647	5646	5653	5654	9
5647	5646	5653	5663	9
5647	5646	5645	5649	9
5647	5648	5643	5651	9
5651	5643	5648	5652	9
5650	5647	5648	5652	9
5656	5655	7797	7787	9
5656	5655	7797	7799	9
5654	5653	5663	5657	9
5654	5653	5663	5664	9
1499	1498	1497	1508	9
1502	1498	1497	1508	9
1501	1496	1497	1508	9
1504	1496	1497	1508	9
1508	6776	6769	6770	9
1508	6776	6769	6768	9
1497	1498	1499	1506	9
1502	1498	1499	1506	9
1501	1500	1499	1506	9
1503	1500	1499	1506	9
1513	1512	1510	1506	9
1517	1512	1510	1506	9
1497	1508	6776	6769	9
1497	1508	6776	6778	9
1497	1498	1499	1500	9
1497	1496	1501	1500	9
1497	1496	1501	1505	9
1512	1510	1506	1499	9
1511	1510	1506	1499	9
1496	1497	1498	1499	9
1496	1501	1500	1499	9
1499	1500	1501	1505	9
1498	1497	1508	1509	9
1498	1497	1508	6776	9
1498	1497	1496	1501	9
1498	1497	1496	1504	9
1498	1499	1506	1507	9
1510	1506	1499	1498	9
1498	1499	1500	1501	9
1498	1499	1500	1503	9
1496	1497	1508	1509	9
1496	1497	1508	6776	9
1496	1497	1498	1502	9
1496	1501	1500	1503	9
1500	1499	1506	1507	9
1510	1506	1499	1500	9
1500	1499	1498	1502	9
1500	1501	1496	1504	9
1504	1496	1501	1505	9
1503	1500	1501	1505	9
1509	1508	6776	6769	9
1509	1508	6776	6778	9
1512	1510	1506	1507	9
1511	1510	1506	1507	9
1020	1019	1018	1029	9
1023	1019	1018	1029	9
1022	1017	1018	1029	9
1025	1017	1018	1029	9
1001	1000	1006	1029	9
1003	1000	1006	1029	9
1018	1019	1020	1027	9
1023	1019	1020	1027	9
1022	1021	1020	1027	9
1024	1021	1020	1027	9
1027	10409	10402	10401	9
1027	10409	10402	10403	9
1000	1006	1029	1018	9
1007	1006	1029	1018	9
1018	1019	1020	1021	9
1018	1017	1022	1021	9
1018	1017	1022	1026	9
1020	1027	10409	10402	9
1020	1027	10409	10411	9
1017	1018	1019	1020	9
1017	1022	1021	1020	9
1020	1021	1022	1026	9
1019	1018	1029	1030	9
1006	1029	1018	1019	9
1019	1018	1017	1022	9
1019	1018	1017	1025	9
1019	1020	1027	1028	9
1019	1020	1027	10409	9
1019	1020	1021	1022	9
1019	1020	1021	1024	9
1017	1018	1029	1030	9
1006	1029	1018	1017	9
1017	1018	1019	1023	9
1017	1022	1021	1024	9
1021	1020	1027	1028	9
1021	1020	1027	10409	9
1021	1020	1019	1023	9
1021	1022	1017	1025	9
1025	1017	1022	1026	9
1024	1021	1022	1026	9
1000	1006	1029	1030	9
1007	1006	1029	1030	9
1028	1027	10409	10402	9
1028	1027	10409	10411	9
649	648	647	658	9
652	648	647	658	9
651	646	647	658	9
654	646	647	658	9
630	629	635	658	9
632	629	635	658	9
647	648	649	656	9
652	648	649	656	9
651	650	649	656	9
653	650	649	656	9
2177	2174	2180	656	9
2175	2174	2180	656	9
629	635	658	647	9
636	635	658	647	9
647	648	649	650	9
647	646	651	650	9
647	646	651	655	9
2174	2180	656	649	9
2181	2180	656	649	9
646	647	648	649	9
646	651	650	649	9
649	650	651	655	9
648	647	658	659	9
635	658	647	648	9
648	647	646	651	9
648	647	646	654	9
648	649	656	657	9
2180	656	649	648	9
648	649	650	651	9
648	649	650	653	9
646	647	658	659	9
635	658	647	646	9
646	647	648	652	9
646	651	650	653	9
650	649	656	657	9
2180	656	649	650	9
650	649	648	652	9
650	651	646	654	9
654	646	651	655	9
653	650	651	655	9
629	635	658	659	9
636	635	658	659	9
2174	2180	656	657	9
2181	2180	656	657	9
11472	11471	11470	11481	9
11475	11471	11470	11481	9
11474	11469	11470	11481	9
11477	11469	11470	11481	9
11481	8499	8489	8488	9
11481	8499	8489	8492	9
11470	11471	11472	11479	9
11475	11471	11472	11479	9
11474	11473	11472	11479	9
11476	11473	11472	11479	9
11479	4315	4308	4309	9
11479	4315	4308	4307	9
11470	11481	8499	8489	9
11470	11481	8499	8501	9
11470	11471	11472	11473	9
11470	11469	11474	11473	9
11470	11469	11474	11478	9
11472	11479	4315	4308	9
11472	11479	4315	4317	9
11469	11470	11471	11472	9
11469	11474	11473	11472	9
11472	11473	11474	11478	9
11471	11470	11481	11482	9
11471	11470	11481	8499	9
11471	11470	11469	11474	9
11471	11470	11469	11477	9
11471	11472	11479	11480	9
11471	11472	11479	4315	9
11471	11472	11473	11474	9
11471	11472	11473	11476	9
11469	11470	11481	11482	9
11469	11470	11481	8499	9
11469	11470	11471	11475	9
11469	11474	11473	11476	9
11473	11472	11479	11480	9
11473	11472	11479	4315	9
11473	11472	11471	11475	9
11473	11474	11469	11477	9
11477	11469	11474	11478	9
11476	11473	11474	11478	9
11482	11481	8499	8489	9
11482	11481	8499	8501	9
11480	11479	4315	4308	9
11480	11479	4315	4317	9
4540	4539	4538	4549	9
4543	4539	4538	4549	9
4542	4537	4538	4549	9
4545	4537	4538	4549	9
4549	7373	7366	7367	9
4549	7373	7366	7365	9
4538	4539	4540	4547	9
4543	4539	4540	4547	9
4542	4541	4540	4547	9
4544	4541	4540	4547	9
4547	4557	4551	4554	9
4547	4557	4551	4552	9
4538	4549	7373	7366	9
4538	4549	7373	7375	9
4538	4539	4540	4541	9
4538	4537	4542	4541	9
4538	4537	4542	4546	9
4540	4547	4557	4551	9
4540	4547	4557	4558	9
4537	4538	4539	4540	9
4537	4542	4541	4540	9
4540	4541	4542	4546	9
4539	4538	4549	4550	9
4539	4538	4549	7373	9
4539	4538	4537	4542	9
4539	4538	4537	4545	9
4539	4540	4547	4548	9
4539	4540	4547	4557	9
4539	4540	4541	4542	9
4539	4540	4541	4544	9
4537	4538	4549	4550	9
4537	4538	4549	7373	9
4537	4538	4539	4543	9
4537	4542	4541	4544	9
4541	4540	4547	4548	9
4541	4540	4547	4557	9
4541	4540	4539	4543	9
4541	4542	4537	4545	9
4545	4537	4542	4546	9
4544	4541	4542	4546	9
4550	4549	7373	7366	9
4550	4549	7373	7375	9
4548	4547	4557	4551	9
4548	4547	4557	4558	9
10706	10707	10708	10715	9
10711	10707	10708	10715	9
10710	10709	10708	10715	9
10712	10709	10708	10715	9
10715	10725	10719	10722	9
10715	10725	10719	10720	9
10708	10707	10706	10717	9
10711	10707	10706	10717	9
10710	10705	10706	10717	9
10713	10705	10706	10717	9
10717	4824	4814	4817	9
10717	4824	4814	4813	9
10708	10715	10725	10719	9
10708	10715	10725	10726	9
10708	10707	10706	10705	9
10708	10709	10710	10705	9
10708	10709	10710	10714	9
10706	10717	4824	4814	9
10706	10717	4824	4826	9
10709	10708	10707	10706	9
10709	10710	10705	10706	9
10706	10705	10710	10714	9
10707	10708	10715	10716	9
10707	10708	10715	10725	9
10707	10708	10709	10710	9
10707	10708	10709	10712	9
10707	10706	10717	10718	9
10707	10706	10717	4824	9
10707	10706	10705	10710	9
10707	10706	10705	10713	9
10709	10708	10715	10716	9
10709	10708	10715	10725	9
10709	10708	10707	10711	9
10709	10710	10705	10713	9
10705	10706	10717	10718	9
10705	10706	10717	4824	9
10705	10706	10707	10711	9
10705	10710	10709	10712	9
10712	10709	10710	10714	9
10713	10705	10710	10714	9
10716	10715	10725	10719	9
10716	10715	10725	10726	9
10718	10717	4824	4814	9
10718	10717	4824	4826	9
6142	6141	6140	6151	9
6145	6141	6140	6151	9
6144	6139	6140	6151	9
6147	6139	6140	6151	9
6151	10389	10383	10384	9
6151	10389	10383	10386	9
6140	6141	6142	6149	9
6145	6141	6142	6149	9
6144	6143	6142	6149	9
6146	6143	6142	6149	9
6149	6159	6153	6154	9
6149	6159	6153	6156	9
6140	6151	10389	10383	9
6140	6151	10389	10390	9
6140	6141	6142	6143	9
6140	6139	6144	6143	9
6140	6139	6144	6148	9
6142	6149	6159	6153	9
6142	6149	6159	6160	9
6139	6140	6141	6142	9
6139	6144	6143	6142	9
6142	6143	6144	6148	9
6141	6140	6151	6152	9
6141	6140	6151	10389	9
6141	6140	6139	6144	9
6141	6140	6139	6147	9
6141	6142	6149	6150	9
6141	6142	6149	6159	9
6141	6142	6143	6144	9
6141	6142	6143	6146	9
6139	6140	6151	6152	9
6139	6140	6151	10389	9
6139	6140	6141	6145	9
6139	6144	6143	6146	9
6143	6142	6149	6150	9
6143	6142	6149	6159	9
6143	6142	6141	6145	9
6143	6144	6139	6147	9
6147	6139	6144	6148	9
6146	6143	6144	6148	9
6152	6151	10389	10383	9
6152	6151	10389	10390	9
6150	6149	6159	6153	9
6150	6149	6159	6160	9
13654	13655	13656	13663	9
13659	13655	13656	13663	9
13658	13657	13656	13663	9
13660	13657	13656	13663	9
13663	10088	10081	10080	9
13663	10088	10081	10082	9
13656	13655	13654	13665	9
13659	13655	13654	13665	9
13658	13653	13654	13665	9
13661	13653	13654	13665	9
13665	10541	10534	10535	9
13665	10541	10534	10533	9
13656	13663	10088	10081	9
13656	13663	10088	10090	9
13656	13655	13654	13653	9
13656	13657	13658	13653	9
13656	13657	13658	13662	9
13654	13665	10541	10534	9
13654	13665	10541	10543	9
13657	13656	13655	13654	9
13657	13658	13653	13654	9
13654	13653	13658	13662	9
13655	13656	13663	13664	9
13655	13656	13663	10088	9
13655	13656	13657	13658	9
13655	13656	13657	13660	9
13655	13654	13665	13666	9
13655	13654	13665	10541	9
13655	13654	13653	13658	9
13655	13654	13653	13661	9
13657	13656	13663	13664	9
13657	13656	13663	10088	9
13657	13656	13655	13659	9
13657	13658	13653	13661	9
13653	13654	13665	13666	9
13653	13654	13665	10541	9
13653	13654	13655	13659	9
13653	13658	13657	13660	9
13660	13657	13658	13662	9
13661	13653	13658	13662	9
13664	13663	10088	10081	9
13664	13663	10088	10090	9
13666	13665	10541	10534	9
13666	13665	10541	10543	9
6825	6826	6827	6834	9
6830	6826	6827	6834	9
6829	6828	6827	6834	9
6831	6828	6827	6834	9
6834	6844	6838	6839	9
6834	6844	6838	6841	9
6827	6826	6825	6836	9
6830	6826	6825	6836	9
6829	6824	6825	6836	9
6832	6824	6825	6836	9
6836	4533	4526	4525	9
6836	4533	4526	4527	9
6827	6834	6844	6838	9
6827	6834	6844	6845	9
6824	6825	6826	6827	9
6824	6829	6828	6827	9
6827	6828	6829	6833	9
6825	6836	4533	4526	9
6825	6836	4533	4535	9
6825	6826	6827	6828	9
6825	6824	6829	6828	9
6825	6824	6829	6833	9
6826	6827	6834	6835	9
6826	6827	6834	6844	9
6826	6827	6828	6829	9
6826	6827	6828	6831	9
6826	6825	6836	6837	9
6826	6825	6836	4533	9
6826	6825	6824	6829	9
6826	6825	6824	6832	9
6828	6827	6834	6835	9
6828	6827	6834	6844	9
6828	6827	6826	6830	9
6828	6829	6824	6832	9
6824	6825	6836	6837	9
6824	6825	6836	4533	9
6824	6825	6826	6830	9
6824	6829	6828	6831	9
6831	6828	6829	6833	9
6832	6824	6829	6833	9
6835	6834	6844	6838	9
6835	6834	6844	6845	9
6837	6836	4533	4526	9
6837	6836	4533	4535	9
13572	13571	13570	13581	9
13575	13571	13570	13581	9
13574	13569	13570	13581	9
13577	13569	13570	13581	9
13581	10702	10692	10691	9
13581	10702	10692	10695	9
13570	13571	13572	13579	9
13575	13571	13572	13579	9
13574	13573	13572	13579	9
13576	13573	13572	13579	9
13579	9402	9395	9394	9
13579	9402	9395	9396	9
13570	13581	10702	10692	9
13570	13581	10702	10704	9
13570	13571	13572	13573	9
13570	13569	13574	13573	9
13570	13569	13574	13578	9
13572	13579	9402	9395	9
13572	13579	9402	9404	9
13569	13570	13571	13572	9
13569	13574	13573	13572	9
13572	13573	13574	13578	9
13571	13570	13581	13582	9
13571	13570	13581	10702	9
13571	13570	13569	13574	9
13571	13570	13569	13577	9
13571	13572	13579	13580	9
13571	13572	13579	9402	9
13571	13572	13573	13574	9
13571	13572	13573	13576	9
13569	13570	13581	13582	9
13569	13570	13581	10702	9
13569	13570	13571	13575	9
13569	13574	13573	13576	9
13573	13572	13579	13580	9
13573	13572	13579	9402	9
13573	13572	13571	13575	9
13573	13574	13569	13577	9
13577	13569	13574	13578	9
13576	13573	13574	13578	9
13582	13581	10702	10692	9
13582	13581	10702	10704	9
13580	13579	9402	9395	9
13580	13579	9402	9404	9
1759	1760	1761	1768	9
1764	1760	1761	1768	9
1763	1762	1761	1768	9
1765	1762	1761	1768	9
1742	1741	1747	1768	9
1744	1741	1747	1768	9
1761	1760	1759	1770	9
1764	1760	1759	1770	9
1763	1758	1759	1770	9
1766	1758	1759	1770	9
1770	8629	8622	8621	9
1770	8629	8622	8623	9
1741	1747	1768	1761	9
1748	1747	1768	1761	9
1758	1759	1760	1761	9
1758	1763	1762	1761	9
1761	1762	1763	1767	9
1759	1770	8629	8622	9
1759	1770	8629	8631	9
1759	1760	1761	1762	9
1759	1758	1763	1762	9
1759	1758	1763	1767	9
1760	1761	1768	1769	9
1747	1768	1761	1760	9
1760	1761	1762	1763	9
1760	1761	1762	1765	9
1760	1759	1770	1771	9
1760	1759	1770	8629	9
1760	1759	1758	1763	9
1760	1759	1758	1766	9
1762	1761	1768	1769	9
1747	1768	1761	1762	9
1762	1761	1760	1764	9
1762	1763	1758	1766	9
1758	1759	1770	1771	9
1758	1759	1770	8629	9
1758	1759	1760	1764	9
1758	1763	1762	1765	9
1765	1762	1763	1767	9
1766	1758	1763	1767	9
1741	1747	1768	1769	9
1748	1747	1768	1769	9
1771	1770	8629	8622	9
1771	1770	8629	8631	9
6754	6753	6752	6763	9
6757	6753	6752	6763	9
6756	6751	6752	6763	9
6759	6751	6752	6763	9
6763	10083	10077	10078	9
6763	10083	10077	10080	9
6752	6753	6754	6761	9
6757	6753	6754	6761	9
6756	6755	6754	6761	9
6758	6755	6754	6761	9
6761	6771	6765	6766	9
6761	6771	6765	6768	9
6752	6763	10083	10077	9
6752	6763	10083	10084	9
6752	6753	6754	6755	9
6752	6751	6756	6755	9
6752	6751	6756	6760	9
6754	6761	6771	6765	9
6754	6761	6771	6772	9
6751	6752	6753	6754	9
6751	6756	6755	6754	9
6754	6755	6756	6760	9
6753	6752	6763	6764	9
6753	6752	6763	10083	9
6753	6752	6751	6756	9
6753	6752	6751	6759	9
6753	6754	6761	6762	9
6753	6754	6761	6771	9
6753	6754	6755	6756	9
6753	6754	6755	6758	9
6751	6752	6763	6764	9
6751	6752	6763	10083	9
6751	6752	6753	6757	9
6751	6756	6755	6758	9
6755	6754	6761	6762	9
6755	6754	6761	6771	9
6755	6754	6753	6757	9
6755	6756	6751	6759	9
6759	6751	6756	6760	9
6758	6755	6756	6760	9
6764	6763	10083	10077	9
6764	6763	10083	10084	9
6762	6761	6771	6765	9
6762	6761	6771	6772	9
371	370	369	380	9
374	370	369	380	9
373	368	369	380	9
376	368	369	380	9
380	8273	8267	8268	9
380	8273	8267	8270	9
369	370	371	378	9
374	370	371	378	9
373	372	371	378	9
375	372	371	378	9
354	351	357	378	9
352	351	357	378	9
369	380	8273	8267	9
369	380	8273	8274	9
369	370	371	372	9
369	368	373	372	9
369	368	373	377	9
351	357	378	371	9
358	357	378	371	9
368	369	370	371	9
368	373	372	371	9
371	372	373	377	9
370	369	380	381	9
370	369	380	8273	9
370	369	368	373	9
370	369	368	376	9
370	371	378	379	9
357	378	371	370	9
370	371	372	373	9
370	371	372	375	9
368	369	380	381	9
368	369	380	8273	9
368	369	370	374	9
368	373	372	375	9
372	371	378	379	9
357	378	371	372	9
372	371	370	374	9
372	373	368	376	9
376	368	373	377	9
375	372	373	377	9
381	380	8273	8267	9
381	380	8273	8274	9
351	357	378	379	9
358	357	378	379	9
3166	3167	3168	3175	9
3171	3167	3168	3175	9
3170	3169	3168	3175	9
3172	3169	3168	3175	9
3175	8376	8370	8373	9
3175	8376	8370	8371	9
3168	3167	3166	3177	9
3171	3167	3166	3177	9
3170	3165	3166	3177	9
3173	3165	3166	3177	9
3168	3175	8376	8370	9
3168	3175	8376	8377	9
3165	3166	3167	3168	9
3165	3170	3169	3168	9
3168	3169	3170	3174	9
3166	3167	3168	3169	9
3166	3165	3170	3169	9
3166	3165	3170	3174	9
3167	3168	3175	3176	9
3167	3168	3175	8376	9
3167	3168	3169	3170	9
3167	3168	3169	3172	9
3167	3166	3177	3178	9
3167	3166	3177	3179	9
3167	3166	3165	3170	9
3167	3166	3165	3173	9
3169	3168	3175	3176	9
3169	3168	3175	8376	9
3169	3168	3167	3171	9
3169	3170	3165	3173	9
3165	3166	3177	3178	9
3165	3166	3177	3179	9
3165	3166	3167	3171	9
3165	3170	3169	3172	9
3172	3169	3170	3174	9
3173	3165	3170	3174	9
3176	3175	8376	8370	9
3176	3175	8376	8377	9
2163	2162	2161	2172	9
2166	2162	2161	2172	9
2165	2160	2161	2172	9
2168	2160	2161	2172	9
2144	2143	2149	2172	9
2146	2143	2149	2172	9
2161	2162	2163	2170	9
2166	2162	2163	2170	9
2165	2164	2163	2170	9
2167	2164	2163	2170	9
2170	4281	4275	4278	9
2170	4281	4275	4276	9
2143	2149	2172	2161	9
2150	2149	2172	2161	9
2161	2162	2163	2164	9
2161	2160	2165	2164	9
2161	2160	2165	2169	9
2163	2170	4281	4275	9
2163	2170	4281	4282	9
2160	2161	2162	2163	9
2160	2165	2164	2163	9
2163	2164	2165	2169	9
2162	2161	2172	2173	9
2149	2172	2161	2162	9
2162	2161	2160	2165	9
2162	2161	2160	2168	9
2162	2163	2170	2171	9
2162	2163	2170	4281	9
2162	2163	2164	2165	9
2162	2163	2164	2167	9
2160	2161	2172	2173	9
2149	2172	2161	2160	9
2160	2161	2162	2166	9
2160	2165	2164	2167	9
2164	2163	2170	2171	9
2164	2163	2170	4281	9
2164	2163	2162	2166	9
2164	2165	2160	2168	9
2168	2160	2165	2169	9
2167	2164	2165	2169	9
2143	2149	2172	2173	9
2150	2149	2172	2173	9
2171	2170	4281	4275	9
2171	2170	4281	4282	9
11178	11177	11176	11187	9
11181	11177	11176	11187	9
11180	11175	11176	11187	9
11183	11175	11176	11187	9
11187	4287	4277	4280	9
11187	4287	4277	4276	9
11176	11177	11178	11185	9
11181	11177	11178	11185	9
11180	11179	11178	11185	9
11182	11179	11178	11185	9
11185	3850	3843	3844	9
11185	3850	3843	3842	9
11176	11187	4287	4277	9
11176	11187	4287	4289	9
11176	11177	11178	11179	9
11176	11175	11180	11179	9
11176	11175	11180	11184	9
11178	11185	3850	3843	9
11178	11185	3850	3852	9
11175	11176	11177	11178	9
11175	11180	11179	11178	9
11178	11179	11180	11184	9
11177	11176	11187	11188	9
11177	11176	11187	4287	9
11177	11176	11175	11180	9
11177	11176	11175	11183	9
11177	11178	11185	11186	9
11177	11178	11185	3850	9
11177	11178	11179	11180	9
11177	11178	11179	11182	9
11175	11176	11187	11188	9
11175	11176	11187	4287	9
11175	11176	11177	11181	9
11175	11180	11179	11182	9
11179	11178	11185	11186	9
11179	11178	11185	3850	9
11179	11178	11177	11181	9
11179	11180	11175	11183	9
11183	11175	11180	11184	9
11182	11179	11180	11184	9
11188	11187	4287	4277	9
11188	11187	4287	4289	9
11186	11185	3850	3843	9
11186	11185	3850	3852	9
2054	2053	2052	2063	9
2057	2053	2052	2063	9
2056	2051	2052	2063	9
2059	2051	2052	2063	9
2068	2067	2065	2063	9
2072	2067	2065	2063	9
2052	2053	2054	2061	9
2057	2053	2054	2061	9
2056	2055	2054	2061	9
2058	2055	2054	2061	9
2061	6135	6128	6127	9
2061	6135	6128	6129	9
2067	2065	2063	2052	9
2066	2065	2063	2052	9
2052	2053	2054	2055	9
2052	2051	2056	2055	9
2052	2051	2056	2060	9
2054	2061	6135	6128	9
2054	2061	6135	6137	9
2051	2052	2053	2054	9
2051	2056	2055	2054	9
2054	2055	2056	2060	9
2053	2052	2063	2064	9
2065	2063	2052	2053	9
2053	2052	2051	2056	9
2053	2052	2051	2059	9
2053	2054	2061	2062	9
2053	2054	2061	6135	9
2053	2054	2055	2056	9
2053	2054	2055	2058	9
2051	2052	2063	2064	9
2065	2063	2052	2051	9
2051	2052	2053	2057	9
2051	2056	2055	2058	9
2055	2054	2061	2062	9
2055	2054	2061	6135	9
2055	2054	2053	2057	9
2055	2056	2051	2059	9
2059	2051	2056	2060	9
2058	2055	2056	2060	9
2067	2065	2063	2064	9
2066	2065	2063	2064	9
2062	2061	6135	6128	9
2062	2061	6135	6137	9
12618	12619	12620	12627	9
12623	12619	12620	12627	9
12622	12621	12620	12627	9
12624	12621	12620	12627	9
12627	10731	10721	10724	9
12627	10731	10721	10720	9
12620	12619	12618	12629	9
12623	12619	12618	12629	9
12622	12617	12618	12629	9
12625	12617	12618	12629	9
12629	6341	6331	6330	9
12629	6341	6331	6334	9
12620	12627	10731	10721	9
12620	12627	10731	10733	9
12620	12619	12618	12617	9
12620	12621	12622	12617	9
12620	12621	12622	12626	9
12618	12629	6341	6331	9
12618	12629	6341	6343	9
12621	12620	12619	12618	9
12621	12622	12617	12618	9
12618	12617	12622	12626	9
12619	12620	12627	12628	9
12619	12620	12627	10731	9
12619	12620	12621	12622	9
12619	12620	12621	12624	9
12619	12618	12629	12630	9
12619	12618	12629	6341	9
12619	12618	12617	12622	9
12619	12618	12617	12625	9
12621	12620	12627	12628	9
12621	12620	12627	10731	9
12621	12620	12619	12623	9
12621	12622	12617	12625	9
12617	12618	12629	12630	9
12617	12618	12629	6341	9
12617	12618	12619	12623	9
12617	12622	12621	12624	9
12624	12621	12622	12626	9
12625	12617	12622	12626	9
12628	12627	10731	10721	9
12628	12627	10731	10733	9
12630	12629	6341	6331	9
12630	12629	6341	6343	9
6929	6928	6927	6938	9
6932	6928	6927	6938	9
6931	6926	6927	6938	9
6934	6926	6927	6938	9
6938	6946	6940	6941	9
6938	6946	6940	6943	9
6927	6928	6929	6936	9
6932	6928	6929	6936	9
6931	6930	6929	6936	9
6933	6930	6929	6936	9
1992	1993	2000	6936	9
1994	1993	2000	6936	9
6927	6938	6946	6940	9
6927	6938	6946	6947	9
6927	6928	6929	6930	9
6927	6926	6931	6930	9
6927	6926	6931	6935	9
1993	2000	6936	6929	9
2002	2000	6936	6929	9
6926	6927	6928	6929	9
6926	6931	6930	6929	9
6929	6930	6931	6935	9
6928	6927	6938	6939	9
6928	6927	6938	6946	9
6928	6927	6926	6931	9
6928	6927	6926	6934	9
6928	6929	6936	6937	9
2000	6936	6929	6928	9
6928	6929	6930	6931	9
6928	6929	6930	6933	9
6926	6927	6938	6939	9
6926	6927	6938	6946	9
6926	6927	6928	6932	9
6926	6931	6930	6933	9
6930	6929	6936	6937	9
2000	6936	6929	6930	9
6930	6929	6928	6932	9
6930	6931	6926	6934	9
6934	6926	6931	6935	9
6933	6930	6931	6935	9
6939	6938	6946	6940	9
6939	6938	6946	6947	9
1993	2000	6936	6937	9
2002	2000	6936	6937	9
11792	11793	11794	11801	9
11797	11793	11794	11801	9
11796	11795	11794	11801	9
11798	11795	11794	11801	9
11801	8966	8956	8959	9
11801	8966	8956	8955	9
11794	11793	11792	11803	9
11797	11793	11792	11803	9
11796	11791	11792	11803	9
11799	11791	11792	11803	9
11803	4867	4860	4859	9
11803	4867	4860	4861	9
11794	11801	8966	8956	9
11794	11801	8966	8968	9
11791	11792	11793	11794	9
11791	11796	11795	11794	9
11794	11795	11796	11800	9
11792	11803	4867	4860	9
11792	11803	4867	4869	9
11792	11793	11794	11795	9
11792	11791	11796	11795	9
11792	11791	11796	11800	9
11793	11794	11801	11802	9
11793	11794	11801	8966	9
11793	11794	11795	11796	9
11793	11794	11795	11798	9
11793	11792	11803	11804	9
11793	11792	11803	4867	9
11793	11792	11791	11796	9
11793	11792	11791	11799	9
11795	11794	11801	11802	9
11795	11794	11801	8966	9
11795	11794	11793	11797	9
11795	11796	11791	11799	9
11791	11792	11803	11804	9
11791	11792	11803	4867	9
11791	11792	11793	11797	9
11791	11796	11795	11798	9
11798	11795	11796	11800	9
11799	11791	11796	11800	9
11802	11801	8966	8956	9
11802	11801	8966	8968	9
11804	11803	4867	4860	9
11804	11803	4867	4869	9
1882	1883	1884	1891	9
1887	1883	1884	1891	9
1886	1885	1884	1891	9
1888	1885	1884	1891	9
1891	5342	5336	5339	9
1891	5342	5336	5337	9
1884	1883	1882	1893	9
1887	1883	1882	1893	9
1886	1881	1882	1893	9
1889	1881	1882	1893	9
1865	1864	1870	1893	9
1867	1864	1870	1893	9
1884	1891	5342	5336	9
1884	1891	5342	5343	9
1884	1883	1882	1881	9
1884	1885	1886	1881	9
1884	1885	1886	1890	9
1864	1870	1893	1882	9
1871	1870	1893	1882	9
1885	1884	1883	1882	9
1885	1886	1881	1882	9
1882	1881	1886	1890	9
1883	1884	1891	1892	9
1883	1884	1891	5342	9
1883	1884	1885	1886	9
1883	1884	1885	1888	9
1883	1882	1893	1894	9
1870	1893	1882	1883	9
1883	1882	1881	1886	9
1883	1882	1881	1889	9
1885	1884	1891	1892	9
1885	1884	1891	5342	9
1885	1884	1883	1887	9
1885	1886	1881	1889	9
1881	1882	1893	1894	9
1870	1893	1882	1881	9
1881	1882	1883	1887	9
1881	1886	1885	1888	9
1888	1885	1886	1890	9
1889	1881	1886	1890	9
1892	1891	5342	5336	9
1892	1891	5342	5343	9
1864	1870	1893	1894	9
1871	1870	1893	1894	9
12144	12143	12142	12153	9
12147	12143	12142	12153	9
12146	12141	12142	12153	9
12149	12141	12142	12153	9
12153	5581	5571	5570	9
12153	5581	5571	5574	9
12142	12143	12144	12151	9
12147	12143	12144	12151	9
12146	12145	12144	12151	9
12148	12145	12144	12151	9
12151	9431	9424	9423	9
12151	9431	9424	9425	9
12142	12153	5581	5571	9
12142	12153	5581	5583	9
12142	12143	12144	12145	9
12142	12141	12146	12145	9
12142	12141	12146	12150	9
12144	12151	9431	9424	9
12144	12151	9431	9433	9
12141	12142	12143	12144	9
12141	12146	12145	12144	9
12144	12145	12146	12150	9
12143	12142	12153	12154	9
12143	12142	12153	5581	9
12143	12142	12141	12146	9
12143	12142	12141	12149	9
12143	12144	12151	12152	9
12143	12144	12151	9431	9
12143	12144	12145	12146	9
12143	12144	12145	12148	9
12141	12142	12153	12154	9
12141	12142	12153	5581	9
12141	12142	12143	12147	9
12141	12146	12145	12148	9
12145	12144	12151	12152	9
12145	12144	12151	9431	9
12145	12144	12143	12147	9
12145	12146	12141	12149	9
12149	12141	12146	12150	9
12148	12145	12146	12150	9
12154	12153	5581	5571	9
12154	12153	5581	5583	9
12152	12151	9431	9424	9
12152	12151	9431	9433	9
3241	3242	3243	3250	9
3246	3242	3243	3250	9
3245	3244	3243	3250	9
3247	3244	3243	3250	9
3250	8746	8739	8738	9
3250	8746	8739	8740	9
3243	3242	3241	3252	9
3246	3242	3241	3252	9
3245	3240	3241	3252	9
3248	3240	3241	3252	9
3243	3250	8746	8739	9
3243	3250	8746	8748	9
3240	3241	3242	3243	9
3240	3245	3244	3243	9
3243	3244	3245	3249	9
3241	3242	3243	3244	9
3241	3240	3245	3244	9
3241	3240	3245	3249	9
3242	3243	3250	3251	9
3242	3243	3250	8746	9
3242	3243	3244	3245	9
3242	3243	3244	3247	9
3242	3241	3252	3253	9
3242	3241	3252	3254	9
3242	3241	3240	3245	9
3242	3241	3240	3248	9
3244	3243	3250	3251	9
3244	3243	3250	8746	9
3244	3243	3242	3246	9
3244	3245	3240	3248	9
3240	3241	3252	3253	9
3240	3241	3252	3254	9
3240	3241	3242	3246	9
3240	3245	3244	3247	9
3247	3244	3245	3249	9
3248	3240	3245	3249	9
3251	3250	8746	8739	9
3251	3250	8746	8748	9
1668	1667	1666	1677	9
1671	1667	1666	1677	9
1670	1665	1666	1677	9
1673	1665	1666	1677	9
1651	1648	1654	1677	9
1649	1648	1654	1677	9
1666	1667	1668	1675	9
1671	1667	1668	1675	9
1670	1669	1668	1675	9
1672	1669	1668	1675	9
1675	9827	9817	9816	9
1675	9827	9817	9820	9
1648	1654	1677	1666	9
1655	1654	1677	1666	9
1666	1667	1668	1669	9
1666	1665	1670	1669	9
1666	1665	1670	1674	9
1668	1675	9827	9817	9
1668	1675	9827	9829	9
1665	1666	1667	1668	9
1665	1670	1669	1668	9
1668	1669	1670	1674	9
1667	1666	1677	1678	9
1654	1677	1666	1667	9
1667	1666	1665	1670	9
1667	1666	1665	1673	9
1667	1668	1675	1676	9
1667	1668	1675	9827	9
1667	1668	1669	1670	9
1667	1668	1669	1672	9
1665	1666	1677	1678	9
1654	1677	1666	1665	9
1665	1666	1667	1671	9
1665	1670	1669	1672	9
1669	1668	1675	1676	9
1669	1668	1675	9827	9
1669	1668	1667	1671	9
1669	1670	1665	1673	9
1673	1665	1670	1674	9
1672	1669	1670	1674	9
1648	1654	1677	1678	9
1655	1654	1677	1678	9
1676	1675	9827	9817	9
1676	1675	9827	9829	9
9031	9030	9029	9040	9
9034	9030	9029	9040	9
9033	9028	9029	9040	9
9036	9028	9029	9040	9
9040	9048	9042	9043	9
9040	9048	9042	9045	9
9029	9030	9031	9038	9
9034	9030	9031	9038	9
9033	9032	9031	9038	9
9035	9032	9031	9038	9
9038	10907	10897	10896	9
9038	10907	10897	10900	9
9029	9040	9048	9042	9
9029	9040	9048	9049	9
9029	9030	9031	9032	9
9029	9028	9033	9032	9
9029	9028	9033	9037	9
9031	9038	10907	10897	9
9031	9038	10907	10909	9
9028	9029	9030	9031	9
9028	9033	9032	9031	9
9031	9032	9033	9037	9
9030	9029	9040	9041	9
9030	9029	9040	9048	9
9030	9029	9028	9033	9
9030	9029	9028	9036	9
9030	9031	9038	9039	9
9030	9031	9038	10907	9
9030	9031	9032	9033	9
9030	9031	9032	9035	9
9028	9029	9040	9041	9
9028	9029	9040	9048	9
9028	9029	9030	9034	9
9028	9033	9032	9035	9
9032	9031	9038	9039	9
9032	9031	9038	10907	9
9032	9031	9030	9034	9
9032	9033	9028	9036	9
9036	9028	9033	9037	9
9035	9032	9033	9037	9
9041	9040	9048	9042	9
9041	9040	9048	9049	9
9039	9038	10907	10897	9
9039	9038	10907	10909	9
12438	12437	12436	12447	9
12441	12437	12436	12447	9
12440	12435	12436	12447	9
12443	12435	12436	12447	9
12447	8484	8474	8477	9
12447	8484	8474	8473	9
12436	12437	12438	12445	9
12441	12437	12438	12445	9
12440	12439	12438	12445	9
12442	12439	12438	12445	9
12445	6020	6010	6013	9
12445	6020	6010	6009	9
12436	12447	8484	8474	9
12436	12447	8484	8486	9
12436	12437	12438	12439	9
12436	12435	12440	12439	9
12436	12435	12440	12444	9
12438	12445	6020	6010	9
12438	12445	6020	6022	9
12435	12436	12437	12438	9
12435	12440	12439	12438	9
12438	12439	12440	12444	9
12437	12436	12447	12448	9
12437	12436	12447	8484	9
12437	12436	12435	12440	9
12437	12436	12435	12443	9
12437	12438	12445	12446	9
12437	12438	12445	6020	9
12437	12438	12439	12440	9
12437	12438	12439	12442	9
12435	12436	12447	12448	9
12435	12436	12447	8484	9
12435	12436	12437	12441	9
12435	12440	12439	12442	9
12439	12438	12445	12446	9
12439	12438	12445	6020	9
12439	12438	12437	12441	9
12439	12440	12435	12443	9
12443	12435	12440	12444	9
12442	12439	12440	12444	9
12448	12447	8484	8474	9
12448	12447	8484	8486	9
12446	12445	6020	6010	9
12446	12445	6020	6022	9
3331	3332	3333	3340	9
3336	3332	3333	3340	9
3335	3334	3333	3340	9
3337	3334	3333	3340	9
3340	9069	9059	9062	9
3340	9069	9059	9058	9
3333	3332	3331	3342	9
3336	3332	3331	3342	9
3335	3330	3331	3342	9
3338	3330	3331	3342	9
3333	3340	9069	9059	9
3333	3340	9069	9071	9
3330	3331	3332	3333	9
3330	3335	3334	3333	9
3333	3334	3335	3339	9
3331	3332	3333	3334	9
3331	3330	3335	3334	9
3331	3330	3335	3339	9
3332	3333	3340	3341	9
3332	3333	3340	9069	9
3332	3333	3334	3335	9
3332	3333	3334	3337	9
3332	3331	3342	3344	9
3332	3331	3342	3343	9
3332	3331	3330	3335	9
3332	3331	3330	3338	9
3334	3333	3340	3341	9
3334	3333	3340	9069	9
3334	3333	3332	3336	9
3334	3335	3330	3338	9
3330	3331	3342	3344	9
3330	3331	3342	3343	9
3330	3331	3332	3336	9
3330	3335	3334	3337	9
3337	3334	3335	3339	9
3338	3330	3335	3339	9
3341	3340	9069	9059	9
3341	3340	9069	9071	9
2673	2672	2671	2682	9
2676	2672	2671	2682	9
2675	2670	2671	2682	9
2678	2670	2671	2682	9
2671	2672	2673	2680	9
2676	2672	2673	2680	9
2675	2674	2673	2680	9
2677	2674	2673	2680	9
2680	4388	4381	4382	9
2680	4388	4381	4380	9
2671	2672	2673	2674	9
2671	2670	2675	2674	9
2671	2670	2675	2679	9
2673	2680	4388	4381	9
2673	2680	4388	4390	9
2670	2671	2672	2673	9
2670	2675	2674	2673	9
2673	2674	2675	2679	9
2672	2671	2682	2684	9
2672	2671	2682	2683	9
2672	2671	2670	2675	9
2672	2671	2670	2678	9
2672	2673	2680	2681	9
2672	2673	2680	4388	9
2672	2673	2674	2675	9
2672	2673	2674	2677	9
2670	2671	2682	2684	9
2670	2671	2682	2683	9
2670	2671	2672	2676	9
2670	2675	2674	2677	9
2674	2673	2680	2681	9
2674	2673	2680	4388	9
2674	2673	2672	2676	9
2674	2675	2670	2678	9
2678	2670	2675	2679	9
2677	2674	2675	2679	9
2681	2680	4388	4381	9
2681	2680	4388	4390	9
2643	2642	2641	2652	9
2646	2642	2641	2652	9
2645	2640	2641	2652	9
2648	2640	2641	2652	9
2641	2642	2643	2650	9
2646	2642	2643	2650	9
2645	2644	2643	2650	9
2647	2644	2643	2650	9
2650	4068	4061	4062	9
2650	4068	4061	4060	9
2641	2642	2643	2644	9
2641	2640	2645	2644	9
2641	2640	2645	2649	9
2643	2650	4068	4061	9
2643	2650	4068	4070	9
2640	2641	2642	2643	9
2640	2645	2644	2643	9
2643	2644	2645	2649	9
2642	2641	2652	2653	9
2642	2641	2652	2654	9
2642	2641	2640	2645	9
2642	2641	2640	2648	9
2642	2643	2650	2651	9
2642	2643	2650	4068	9
2642	2643	2644	2645	9
2642	2643	2644	2647	9
2640	2641	2652	2653	9
2640	2641	2652	2654	9
2640	2641	2642	2646	9
2640	2645	2644	2647	9
2644	2643	2650	2651	9
2644	2643	2650	4068	9
2644	2643	2642	2646	9
2644	2645	2640	2648	9
2648	2640	2645	2649	9
2647	2644	2645	2649	9
2651	2650	4068	4061	9
2651	2650	4068	4070	9
13586	13585	13584	13595	9
13589	13585	13584	13595	9
13588	13583	13584	13595	9
13591	13583	13584	13595	9
13595	10117	10110	10111	9
13595	10117	10110	10109	9
13584	13585	13586	13593	9
13589	13585	13586	13593	9
13588	13587	13586	13593	9
13590	13587	13586	13593	9
13593	9651	9644	9643	9
13593	9651	9644	9645	9
13584	13595	10117	10110	9
13584	13595	10117	10119	9
13584	13585	13586	13587	9
13584	13583	13588	13587	9
13584	13583	13588	13592	9
13586	13593	9651	9644	9
13586	13593	9651	9653	9
13583	13584	13585	13586	9
13583	13588	13587	13586	9
13586	13587	13588	13592	9
13585	13584	13595	13596	9
13585	13584	13595	10117	9
13585	13584	13583	13588	9
13585	13584	13583	13591	9
13585	13586	13593	13594	9
13585	13586	13593	9651	9
13585	13586	13587	13588	9
13585	13586	13587	13590	9
13583	13584	13595	13596	9
13583	13584	13595	10117	9
13583	13584	13585	13589	9
13583	13588	13587	13590	9
13587	13586	13593	13594	9
13587	13586	13593	9651	9
13587	13586	13585	13589	9
13587	13588	13583	13591	9
13591	13583	13588	13592	9
13590	13587	13588	13592	9
13596	13595	10117	10110	9
13596	13595	10117	10119	9
13594	13593	9651	9644	9
13594	13593	9651	9653	9
7351	7350	7349	7360	9
7354	7350	7349	7360	9
7353	7348	7349	7360	9
7356	7348	7349	7360	9
7360	7368	7362	7363	9
7360	7368	7362	7365	9
7349	7350	7351	7358	9
7354	7350	7351	7358	9
7353	7352	7351	7358	9
7355	7352	7351	7358	9
7358	9053	9046	9047	9
7358	9053	9046	9045	9
7349	7360	7368	7362	9
7349	7360	7368	7369	9
7349	7350	7351	7352	9
7349	7348	7353	7352	9
7349	7348	7353	7357	9
7351	7358	9053	9046	9
7351	7358	9053	9055	9
7348	7349	7350	7351	9
7348	7353	7352	7351	9
7351	7352	7353	7357	9
7350	7349	7360	7361	9
7350	7349	7360	7368	9
7350	7349	7348	7353	9
7350	7349	7348	7356	9
7350	7351	7358	7359	9
7350	7351	7358	9053	9
7350	7351	7352	7353	9
7350	7351	7352	7355	9
7348	7349	7360	7361	9
7348	7349	7360	7368	9
7348	7349	7350	7354	9
7348	7353	7352	7355	9
7352	7351	7358	7359	9
7352	7351	7358	9053	9
7352	7351	7350	7354	9
7352	7353	7348	7356	9
7356	7348	7353	7357	9
7355	7352	7353	7357	9
7361	7360	7368	7362	9
7361	7360	7368	7369	9
7359	7358	9053	9046	9
7359	7358	9053	9055	9
13516	13515	13514	13525	9
13519	13515	13514	13525	9
13518	13513	13514	13525	9
13521	13513	13514	13525	9
13525	9287	9277	9276	9
13525	9287	9277	9280	9
13514	13515	13516	13523	9
13519	13515	13516	13523	9
13518	13517	13516	13523	9
13520	13517	13516	13523	9
13523	9010	9000	8999	9
13523	9010	9000	9003	9
13514	13525	9287	9277	9
13514	13525	9287	9289	9
13514	13515	13516	13517	9
13514	13513	13518	13517	9
13514	13513	13518	13522	9
13516	13523	9010	9000	9
13516	13523	9010	9012	9
13513	13514	13515	13516	9
13513	13518	13517	13516	9
13516	13517	13518	13522	9
13515	13514	13525	13526	9
13515	13514	13525	9287	9
13515	13514	13513	13518	9
13515	13514	13513	13521	9
13515	13516	13523	13524	9
13515	13516	13523	9010	9
13515	13516	13517	13518	9
13515	13516	13517	13520	9
13513	13514	13525	13526	9
13513	13514	13525	9287	9
13513	13514	13515	13519	9
13513	13518	13517	13520	9
13517	13516	13523	13524	9
13517	13516	13523	9010	9
13517	13516	13515	13519	9
13517	13518	13513	13521	9
13521	13513	13518	13522	9
13520	13517	13518	13522	9
13526	13525	9287	9277	9
13526	13525	9287	9289	9
13524	13523	9010	9000	9
13524	13523	9010	9012	9
11836	11835	11834	11845	9
11839	11835	11834	11845	9
11838	11833	11834	11845	9
11841	11833	11834	11845	9
11845	4925	4918	4917	9
11845	4925	4918	4919	9
11834	11835	11836	11843	9
11839	11835	11836	11843	9
11838	11837	11836	11843	9
11840	11837	11836	11843	9
11843	5246	5236	5239	9
11843	5246	5236	5235	9
11834	11845	4925	4918	9
11834	11845	4925	4927	9
11834	11835	11836	11837	9
11834	11833	11838	11837	9
11834	11833	11838	11842	9
11836	11843	5246	5236	9
11836	11843	5246	5248	9
11833	11834	11835	11836	9
11833	11838	11837	11836	9
11836	11837	11838	11842	9
11835	11834	11845	11846	9
11835	11834	11845	4925	9
11835	11834	11833	11838	9
11835	11834	11833	11841	9
11835	11836	11843	11844	9
11835	11836	11843	5246	9
11835	11836	11837	11838	9
11835	11836	11837	11840	9
11833	11834	11845	11846	9
11833	11834	11845	4925	9
11833	11834	11835	11839	9
11833	11838	11837	11840	9
11837	11836	11843	11844	9
11837	11836	11843	5246	9
11837	11836	11835	11839	9
11837	11838	11833	11841	9
11841	11833	11838	11842	9
11840	11837	11838	11842	9
11846	11845	4925	4918	9
11846	11845	4925	4927	9
11844	11843	5246	5236	9
11844	11843	5246	5248	9
12550	12549	12548	12559	9
12553	12549	12548	12559	9
12552	12547	12548	12559	9
12555	12547	12548	12559	9
12559	7564	7554	7557	9
12559	7564	7554	7553	9
12548	12549	12550	12557	9
12553	12549	12550	12557	9
12552	12551	12550	12557	9
12554	12551	12550	12557	9
12557	6237	6230	6229	9
12557	6237	6230	6231	9
12548	12559	7564	7554	9
12548	12559	7564	7566	9
12548	12549	12550	12551	9
12548	12547	12552	12551	9
12548	12547	12552	12556	9
12550	12557	6237	6230	9
12550	12557	6237	6239	9
12547	12548	12549	12550	9
12547	12552	12551	12550	9
12550	12551	12552	12556	9
12549	12548	12559	12560	9
12549	12548	12559	7564	9
12549	12548	12547	12552	9
12549	12548	12547	12555	9
12549	12550	12557	12558	9
12549	12550	12557	6237	9
12549	12550	12551	12552	9
12549	12550	12551	12554	9
12547	12548	12559	12560	9
12547	12548	12559	7564	9
12547	12548	12549	12553	9
12547	12552	12551	12554	9
12551	12550	12557	12558	9
12551	12550	12557	6237	9
12551	12550	12549	12553	9
12551	12552	12547	12555	9
12555	12547	12552	12556	9
12554	12551	12552	12556	9
12560	12559	7564	7554	9
12560	12559	7564	7566	9
12558	12557	6237	6230	9
12558	12557	6237	6239	9
7832	7831	7830	7841	9
7835	7831	7830	7841	9
7834	7829	7830	7841	9
7837	7829	7830	7841	9
7841	7849	7843	7844	9
7841	7849	7843	7846	9
7830	7831	7832	7839	9
7835	7831	7832	7839	9
7834	7833	7832	7839	9
7836	7833	7832	7839	9
7839	7951	7945	7946	9
7839	7951	7945	7948	9
7830	7841	7849	7843	9
7830	7841	7849	7850	9
7830	7831	7832	7833	9
7830	7829	7834	7833	9
7830	7829	7834	7838	9
7832	7839	7951	7945	9
7832	7839	7951	7952	9
7829	7830	7831	7832	9
7829	7834	7833	7832	9
7832	7833	7834	7838	9
7831	7830	7841	7842	9
7831	7830	7841	7849	9
7831	7830	7829	7834	9
7831	7830	7829	7837	9
7831	7832	7839	7840	9
7831	7832	7839	7951	9
7831	7832	7833	7834	9
7831	7832	7833	7836	9
7829	7830	7841	7842	9
7829	7830	7841	7849	9
7829	7830	7831	7835	9
7829	7834	7833	7836	9
7833	7832	7839	7840	9
7833	7832	7839	7951	9
7833	7832	7831	7835	9
7833	7834	7829	7837	9
7837	7829	7834	7838	9
7836	7833	7834	7838	9
7842	7841	7849	7843	9
7842	7841	7849	7850	9
7840	7839	7951	7945	9
7840	7839	7951	7952	9
8783	8782	8781	8792	9
8786	8782	8781	8792	9
8785	8780	8781	8792	9
8788	8780	8781	8792	9
8792	5669	5659	5662	9
8792	5669	5659	5658	9
8781	8782	8783	8790	9
8786	8782	8783	8790	9
8785	8784	8783	8790	9
8787	8784	8783	8790	9
8790	8800	8794	8795	9
8790	8800	8794	8797	9
8781	8792	5669	5659	9
8781	8792	5669	5671	9
8781	8782	8783	8784	9
8781	8780	8785	8784	9
8781	8780	8785	8789	9
8783	8790	8800	8794	9
8783	8790	8800	8801	9
8780	8781	8782	8783	9
8780	8785	8784	8783	9
8783	8784	8785	8789	9
8782	8781	8792	8793	9
8782	8781	8792	5669	9
8782	8781	8780	8785	9
8782	8781	8780	8788	9
8782	8783	8790	8791	9
8782	8783	8790	8800	9
8782	8783	8784	8785	9
8782	8783	8784	8787	9
8780	8781	8792	8793	9
8780	8781	8792	5669	9
8780	8781	8782	8786	9
8780	8785	8784	8787	9
8784	8783	8790	8791	9
8784	8783	8790	8800	9
8784	8783	8782	8786	9
8784	8785	8780	8788	9
8788	8780	8785	8789	9
8787	8784	8785	8789	9
8793	8792	5669	5659	9
8793	8792	5669	5671	9
8791	8790	8800	8794	9
8791	8790	8800	8801	9
11206	11205	11204	11215	9
11209	11205	11204	11215	9
11208	11203	11204	11215	9
11211	11203	11204	11215	9
11215	8322	8315	8316	9
11215	8322	8315	8314	9
11204	11205	11206	11213	9
11209	11205	11206	11213	9
11208	11207	11206	11213	9
11210	11207	11206	11213	9
11213	3866	3856	3859	9
11213	3866	3856	3855	9
11204	11215	8322	8315	9
11204	11215	8322	8324	9
11204	11205	11206	11207	9
11204	11203	11208	11207	9
11204	11203	11208	11212	9
11206	11213	3866	3856	9
11206	11213	3866	3868	9
11203	11204	11205	11206	9
11203	11208	11207	11206	9
11206	11207	11208	11212	9
11205	11204	11215	11216	9
11205	11204	11215	8322	9
11205	11204	11203	11208	9
11205	11204	11203	11211	9
11205	11206	11213	11214	9
11205	11206	11213	3866	9
11205	11206	11207	11208	9
11205	11206	11207	11210	9
11203	11204	11215	11216	9
11203	11204	11215	8322	9
11203	11204	11205	11209	9
11203	11208	11207	11210	9
11207	11206	11213	11214	9
11207	11206	11213	3866	9
11207	11206	11205	11209	9
11207	11208	11203	11211	9
11211	11203	11208	11212	9
11210	11207	11208	11212	9
11216	11215	8322	8315	9
11216	11215	8322	8324	9
11214	11213	3866	3856	9
11214	11213	3866	3868	9
4685	4684	4683	4694	9
4688	4684	4683	4694	9
4687	4682	4683	4694	9
4690	4682	4683	4694	9
4694	4702	4696	4697	9
4694	4702	4696	4699	9
4683	4684	4685	4692	9
4688	4684	4685	4692	9
4687	4686	4685	4692	9
4689	4686	4685	4692	9
4692	7534	7527	7526	9
4692	7534	7527	7528	9
4683	4694	4702	4696	9
4683	4694	4702	4703	9
4683	4684	4685	4686	9
4683	4682	4687	4686	9
4683	4682	4687	4691	9
4685	4692	7534	7527	9
4685	4692	7534	7536	9
4682	4683	4684	4685	9
4682	4687	4686	4685	9
4685	4686	4687	4691	9
4684	4683	4694	4695	9
4684	4683	4694	4702	9
4684	4683	4682	4687	9
4684	4683	4682	4690	9
4684	4685	4692	4693	9
4684	4685	4692	7534	9
4684	4685	4686	4687	9
4684	4685	4686	4689	9
4682	4683	4694	4695	9
4682	4683	4694	4702	9
4682	4683	4684	4688	9
4682	4687	4686	4689	9
4686	4685	4692	4693	9
4686	4685	4692	7534	9
4686	4685	4684	4688	9
4686	4687	4682	4690	9
4690	4682	4687	4691	9
4689	4686	4687	4691	9
4695	4694	4702	4696	9
4695	4694	4702	4703	9
4693	4692	7534	7527	9
4693	4692	7534	7536	9
2793	2792	2791	2802	9
2796	2792	2791	2802	9
2795	2790	2791	2802	9
2798	2790	2791	2802	9
2791	2792	2793	2800	9
2796	2792	2793	2800	9
2795	2794	2793	2800	9
2797	2794	2793	2800	9
2800	5303	5296	5297	9
2800	5303	5296	5295	9
2791	2792	2793	2794	9
2791	2790	2795	2794	9
2791	2790	2795	2799	9
2793	2800	5303	5296	9
2793	2800	5303	5305	9
2790	2791	2792	2793	9
2790	2795	2794	2793	9
2793	2794	2795	2799	9
2792	2791	2802	2804	9
2792	2791	2802	2803	9
2792	2791	2790	2795	9
2792	2791	2790	2798	9
2792	2793	2800	2801	9
2792	2793	2800	5303	9
2792	2793	2794	2795	9
2792	2793	2794	2797	9
2790	2791	2802	2804	9
2790	2791	2802	2803	9
2790	2791	2792	2796	9
2790	2795	2794	2797	9
2794	2793	2800	2801	9
2794	2793	2800	5303	9
2794	2793	2792	2796	9
2794	2795	2790	2798	9
2798	2790	2795	2799	9
2797	2794	2795	2799	9
2801	2800	5303	5296	9
2801	2800	5303	5305	9
1546	1545	1544	1555	9
1549	1545	1544	1555	9
1548	1543	1544	1555	9
1551	1543	1544	1555	9
1527	1526	1532	1555	9
1529	1526	1532	1555	9
1544	1545	1546	1553	9
1549	1545	1546	1553	9
1548	1547	1546	1553	9
1550	1547	1546	1553	9
663	664	671	1553	9
665	664	671	1553	9
1526	1532	1555	1544	9
1533	1532	1555	1544	9
1544	1545	1546	1547	9
1544	1543	1548	1547	9
1544	1543	1548	1552	9
664	671	1553	1546	9
673	671	1553	1546	9
1543	1544	1545	1546	9
1543	1548	1547	1546	9
1546	1547	1548	1552	9
1545	1544	1555	1556	9
1532	1555	1544	1545	9
1545	1544	1543	1548	9
1545	1544	1543	1551	9
1545	1546	1553	1554	9
671	1553	1546	1545	9
1545	1546	1547	1548	9
1545	1546	1547	1550	9
1543	1544	1555	1556	9
1532	1555	1544	1543	9
1543	1544	1545	1549	9
1543	1548	1547	1550	9
1547	1546	1553	1554	9
671	1553	1546	1547	9
1547	1546	1545	1549	9
1547	1548	1543	1551	9
1551	1543	1548	1552	9
1550	1547	1548	1552	9
1526	1532	1555	1556	9
1533	1532	1555	1556	9
664	671	1553	1554	9
673	671	1553	1554	9
11360	11359	11358	11369	9
11363	11359	11358	11369	9
11362	11357	11358	11369	9
11365	11357	11358	11369	9
11369	9505	9495	9494	9
11369	9505	9495	9498	9
11358	11359	11360	11367	9
11363	11359	11360	11367	9
11362	11361	11360	11367	9
11364	11361	11360	11367	9
11367	4155	4148	4149	9
11367	4155	4148	4147	9
11358	11369	9505	9495	9
11358	11369	9505	9507	9
11358	11359	11360	11361	9
11358	11357	11362	11361	9
11358	11357	11362	11366	9
11360	11367	4155	4148	9
11360	11367	4155	4157	9
11357	11358	11359	11360	9
11357	11362	11361	11360	9
11360	11361	11362	11366	9
11359	11358	11369	11370	9
11359	11358	11369	9505	9
11359	11358	11357	11362	9
11359	11358	11357	11365	9
11359	11360	11367	11368	9
11359	11360	11367	4155	9
11359	11360	11361	11362	9
11359	11360	11361	11364	9
11357	11358	11369	11370	9
11357	11358	11369	9505	9
11357	11358	11359	11363	9
11357	11362	11361	11364	9
11361	11360	11367	11368	9
11361	11360	11367	4155	9
11361	11360	11359	11363	9
11361	11362	11357	11365	9
11365	11357	11362	11366	9
11364	11361	11362	11366	9
11370	11369	9505	9495	9
11370	11369	9505	9507	9
11368	11367	4155	4148	9
11368	11367	4155	4157	9
4453	4452	4451	4462	9
4456	4452	4451	4462	9
4455	4450	4451	4462	9
4458	4450	4451	4462	9
4462	4470	4464	4467	9
4462	4470	4464	4465	9
4451	4452	4453	4460	9
4456	4452	4453	4460	9
4455	4454	4453	4460	9
4457	4454	4453	4460	9
4460	6077	6070	6069	9
4460	6077	6070	6071	9
4451	4462	4470	4464	9
4451	4462	4470	4471	9
4451	4452	4453	4454	9
4451	4450	4455	4454	9
4451	4450	4455	4459	9
4453	4460	6077	6070	9
4453	4460	6077	6079	9
4450	4451	4452	4453	9
4450	4455	4454	4453	9
4453	4454	4455	4459	9
4452	4451	4462	4463	9
4452	4451	4462	4470	9
4452	4451	4450	4455	9
4452	4451	4450	4458	9
4452	4453	4460	4461	9
4452	4453	4460	6077	9
4452	4453	4454	4455	9
4452	4453	4454	4457	9
4450	4451	4462	4463	9
4450	4451	4462	4470	9
4450	4451	4452	4456	9
4450	4455	4454	4457	9
4454	4453	4460	4461	9
4454	4453	4460	6077	9
4454	4453	4452	4456	9
4454	4455	4450	4458	9
4458	4450	4455	4459	9
4457	4454	4455	4459	9
4463	4462	4470	4464	9
4463	4462	4470	4471	9
4461	4460	6077	6070	9
4461	4460	6077	6079	9
8138	8137	8136	8147	9
8141	8137	8136	8147	9
8140	8135	8136	8147	9
8143	8135	8136	8147	9
8147	8155	8149	8152	9
8147	8155	8149	8150	9
8136	8137	8138	8145	9
8141	8137	8138	8145	9
8140	8139	8138	8145	9
8142	8139	8138	8145	9
8145	5187	5180	5179	9
8145	5187	5180	5181	9
8136	8147	8155	8149	9
8136	8147	8155	8156	9
8136	8137	8138	8139	9
8136	8135	8140	8139	9
8136	8135	8140	8144	9
8138	8145	5187	5180	9
8138	8145	5187	5189	9
8135	8136	8137	8138	9
8135	8140	8139	8138	9
8138	8139	8140	8144	9
8137	8136	8147	8148	9
8137	8136	8147	8155	9
8137	8136	8135	8140	9
8137	8136	8135	8143	9
8137	8138	8145	8146	9
8137	8138	8145	5187	9
8137	8138	8139	8140	9
8137	8138	8139	8142	9
8135	8136	8147	8148	9
8135	8136	8147	8155	9
8135	8136	8137	8141	9
8135	8140	8139	8142	9
8139	8138	8145	8146	9
8139	8138	8145	5187	9
8139	8138	8137	8141	9
8139	8140	8135	8143	9
8143	8135	8140	8144	9
8142	8139	8140	8144	9
8148	8147	8155	8149	9
8148	8147	8155	8156	9
8146	8145	5187	5180	9
8146	8145	5187	5189	9
2958	2957	2956	2967	9
2961	2957	2956	2967	9
2960	2955	2956	2967	9
2963	2955	2956	2967	9
2956	2957	2958	2965	9
2961	2957	2958	2965	9
2960	2959	2958	2965	9
2962	2959	2958	2965	9
2965	6559	6549	6548	9
2965	6559	6549	6552	9
2956	2957	2958	2959	9
2956	2955	2960	2959	9
2956	2955	2960	2964	9
2958	2965	6559	6549	9
2958	2965	6559	6561	9
2955	2956	2957	2958	9
2955	2960	2959	2958	9
2958	2959	2960	2964	9
2957	2956	2967	2969	9
2957	2956	2967	2968	9
2957	2956	2955	2960	9
2957	2956	2955	2963	9
2957	2958	2965	2966	9
2957	2958	2965	6559	9
2957	2958	2959	2960	9
2957	2958	2959	2962	9
2955	2956	2967	2969	9
2955	2956	2967	2968	9
2955	2956	2957	2961	9
2955	2960	2959	2962	9
2959	2958	2965	2966	9
2959	2958	2965	6559	9
2959	2958	2957	2961	9
2959	2960	2955	2963	9
2963	2955	2960	2964	9
2962	2959	2960	2964	9
2966	2965	6559	6549	9
2966	2965	6559	6561	9
7890	7889	7888	7899	9
7893	7889	7888	7899	9
7892	7887	7888	7899	9
7895	7887	7888	7899	9
7899	7907	7901	7902	9
7899	7907	7901	7904	9
7888	7889	7890	7897	9
7893	7889	7890	7897	9
7892	7891	7890	7897	9
7894	7891	7890	7897	9
7897	4097	4090	4091	9
7897	4097	4090	4089	9
7888	7899	7907	7901	9
7888	7899	7907	7908	9
7888	7889	7890	7891	9
7888	7887	7892	7891	9
7888	7887	7892	7896	9
7890	7897	4097	4090	9
7890	7897	4097	4099	9
7887	7888	7889	7890	9
7887	7892	7891	7890	9
7890	7891	7892	7896	9
7889	7888	7899	7900	9
7889	7888	7899	7907	9
7889	7888	7887	7892	9
7889	7888	7887	7895	9
7889	7890	7897	7898	9
7889	7890	7897	4097	9
7889	7890	7891	7892	9
7889	7890	7891	7894	9
7887	7888	7899	7900	9
7887	7888	7899	7907	9
7887	7888	7889	7893	9
7887	7892	7891	7894	9
7891	7890	7897	7898	9
7891	7890	7897	4097	9
7891	7890	7889	7893	9
7891	7892	7887	7895	9
7895	7887	7892	7896	9
7894	7891	7892	7896	9
7900	7899	7907	7901	9
7900	7899	7907	7908	9
7898	7897	4097	4090	9
7898	7897	4097	4099	9
12018	12017	12016	12027	9
12021	12017	12016	12027	9
12020	12015	12016	12027	9
12023	12015	12016	12027	9
12027	5376	5369	5368	9
12027	5376	5369	5370	9
12016	12017	12018	12025	9
12021	12017	12018	12025	9
12020	12019	12018	12025	9
12022	12019	12018	12025	9
12025	9548	9541	9542	9
12025	9548	9541	9540	9
12016	12027	5376	5369	9
12016	12027	5376	5378	9
12016	12017	12018	12019	9
12016	12015	12020	12019	9
12016	12015	12020	12024	9
12018	12025	9548	9541	9
12018	12025	9548	9550	9
12015	12016	12017	12018	9
12015	12020	12019	12018	9
12018	12019	12020	12024	9
12017	12016	12027	12028	9
12017	12016	12027	5376	9
12017	12016	12015	12020	9
12017	12016	12015	12023	9
12017	12018	12025	12026	9
12017	12018	12025	9548	9
12017	12018	12019	12020	9
12017	12018	12019	12022	9
12015	12016	12027	12028	9
12015	12016	12027	5376	9
12015	12016	12017	12021	9
12015	12020	12019	12022	9
12019	12018	12025	12026	9
12019	12018	12025	9548	9
12019	12018	12017	12021	9
12019	12020	12015	12023	9
12023	12015	12020	12024	9
12022	12019	12020	12024	9
12028	12027	5376	5369	9
12028	12027	5376	5378	9
12026	12025	9548	9541	9
12026	12025	9548	9550	9
6856	6855	6854	6865	9
6859	6855	6854	6865	9
6858	6853	6854	6865	9
6861	6853	6854	6865	9
6865	6873	6867	6870	9
6865	6873	6867	6868	9
6854	6855	6856	6863	9
6859	6855	6856	6863	9
6858	6857	6856	6863	9
6860	6857	6856	6863	9
6863	6558	6551	6552	9
6863	6558	6551	6550	9
6854	6865	6873	6867	9
6854	6865	6873	6874	9
6854	6855	6856	6857	9
6854	6853	6858	6857	9
6854	6853	6858	6862	9
6856	6863	6558	6551	9
6856	6863	6558	6560	9
6853	6854	6855	6856	9
6853	6858	6857	6856	9
6856	6857	6858	6862	9
6855	6854	6865	6866	9
6855	6854	6865	6873	9
6855	6854	6853	6858	9
6855	6854	6853	6861	9
6855	6856	6863	6864	9
6855	6856	6863	6558	9
6855	6856	6857	6858	9
6855	6856	6857	6860	9
6853	6854	6865	6866	9
6853	6854	6865	6873	9
6853	6854	6855	6859	9
6853	6858	6857	6860	9
6857	6856	6863	6864	9
6857	6856	6863	6558	9
6857	6856	6855	6859	9
6857	6858	6853	6861	9
6861	6853	6858	6862	9
6860	6857	6858	6862	9
6866	6865	6873	6867	9
6866	6865	6873	6874	9
6864	6863	6558	6551	9
6864	6863	6558	6560	9
340	339	338	349	9
343	339	338	349	9
342	337	338	349	9
345	337	338	349	9
349	6101	6095	6096	9
349	6101	6095	6098	9
338	339	340	347	9
343	339	340	347	9
342	341	340	347	9
344	341	340	347	9
321	320	326	347	9
323	320	326	347	9
338	349	6101	6095	9
338	349	6101	6102	9
338	339	340	341	9
338	337	342	341	9
338	337	342	346	9
320	326	347	340	9
327	326	347	340	9
337	338	339	340	9
337	342	341	340	9
340	341	342	346	9
339	338	349	350	9
339	338	349	6101	9
339	338	337	342	9
339	338	337	345	9
339	340	347	348	9
326	347	340	339	9
339	340	341	342	9
339	340	341	344	9
337	338	349	350	9
337	338	349	6101	9
337	338	339	343	9
337	342	341	344	9
341	340	347	348	9
326	347	340	341	9
341	340	339	343	9
341	342	337	345	9
345	337	342	346	9
344	341	342	346	9
350	349	6101	6095	9
350	349	6101	6102	9
320	326	347	348	9
327	326	347	348	9
11430	11429	11428	11439	9
11433	11429	11428	11439	9
11432	11427	11428	11439	9
11435	11427	11428	11439	9
11439	4242	4235	4234	9
11439	4242	4235	4236	9
11428	11429	11430	11437	9
11433	11429	11430	11437	9
11432	11431	11430	11437	9
11434	11431	11430	11437	9
1456	1455	1457	11437	9
1454	1455	1457	11437	9
11428	11439	4242	4235	9
11428	11439	4242	4244	9
11428	11429	11430	11431	9
11428	11427	11432	11431	9
11428	11427	11432	11436	9
1455	1457	11437	11430	9
1458	1457	11437	11430	9
11427	11428	11429	11430	9
11427	11432	11431	11430	9
11430	11431	11432	11436	9
11429	11428	11439	11440	9
11429	11428	11439	4242	9
11429	11428	11427	11432	9
11429	11428	11427	11435	9
11429	11430	11437	11438	9
1457	11437	11430	11429	9
11429	11430	11431	11432	9
11429	11430	11431	11434	9
11427	11428	11439	11440	9
11427	11428	11439	4242	9
11427	11428	11429	11433	9
11427	11432	11431	11434	9
11431	11430	11437	11438	9
1457	11437	11430	11431	9
11431	11430	11429	11433	9
11431	11432	11427	11435	9
11435	11427	11432	11436	9
11434	11431	11432	11436	9
11440	11439	4242	4235	9
11440	11439	4242	4244	9
1455	1457	11437	11438	9
1458	1457	11437	11438	9
7745	7744	7743	7754	9
7748	7744	7743	7754	9
7747	7742	7743	7754	9
7750	7742	7743	7754	9
7754	9973	9963	9962	9
7754	9973	9963	9966	9
7743	7744	7745	7752	9
7748	7744	7745	7752	9
7747	7746	7745	7752	9
7749	7746	7745	7752	9
7752	7762	7756	7757	9
7752	7762	7756	7759	9
7743	7754	9973	9963	9
7743	7754	9973	9975	9
7743	7744	7745	7746	9
7743	7742	7747	7746	9
7743	7742	7747	7751	9
7745	7752	7762	7756	9
7745	7752	7762	7763	9
7742	7743	7744	7745	9
7742	7747	7746	7745	9
7745	7746	7747	7751	9
7744	7743	7754	7755	9
7744	7743	7754	9973	9
7744	7743	7742	7747	9
7744	7743	7742	7750	9
7744	7745	7752	7753	9
7744	7745	7752	7762	9
7744	7745	7746	7747	9
7744	7745	7746	7749	9
7742	7743	7754	7755	9
7742	7743	7754	9973	9
7742	7743	7744	7748	9
7742	7747	7746	7749	9
7746	7745	7752	7753	9
7746	7745	7752	7762	9
7746	7745	7744	7748	9
7746	7747	7742	7750	9
7750	7742	7747	7751	9
7749	7746	7747	7751	9
7755	7754	9973	9963	9
7755	7754	9973	9975	9
7753	7752	7762	7756	9
7753	7752	7762	7763	9
4511	4510	4509	4520	9
4514	4510	4509	4520	9
4513	4508	4509	4520	9
4516	4508	4509	4520	9
4520	4528	4522	4525	9
4520	4528	4522	4523	9
4509	4510	4511	4518	9
4514	4510	4511	4518	9
4513	4512	4511	4518	9
4515	4512	4511	4518	9
4518	8937	8927	8930	9
4518	8937	8927	8926	9
4509	4520	4528	4522	9
4509	4520	4528	4529	9
4509	4510	4511	4512	9
4509	4508	4513	4512	9
4509	4508	4513	4517	9
4511	4518	8937	8927	9
4511	4518	8937	8939	9
4508	4509	4510	4511	9
4508	4513	4512	4511	9
4511	4512	4513	4517	9
4510	4509	4520	4521	9
4510	4509	4520	4528	9
4510	4509	4508	4513	9
4510	4509	4508	4516	9
4510	4511	4518	4519	9
4510	4511	4518	8937	9
4510	4511	4512	4513	9
4510	4511	4512	4515	9
4508	4509	4520	4521	9
4508	4509	4520	4528	9
4508	4509	4510	4514	9
4508	4513	4512	4515	9
4512	4511	4518	4519	9
4512	4511	4518	8937	9
4512	4511	4510	4514	9
4512	4513	4508	4516	9
4516	4508	4513	4517	9
4515	4512	4513	4517	9
4521	4520	4528	4522	9
4521	4520	4528	4529	9
4519	4518	8937	8927	9
4519	4518	8937	8939	9
13614	13613	13612	13623	9
13617	13613	13612	13623	9
13616	13611	13612	13623	9
13619	13611	13612	13623	9
13623	11038	11031	11032	9
13623	11038	11031	11030	9
13612	13613	13614	13621	9
13617	13613	13614	13621	9
13616	13615	13614	13621	9
13618	13615	13614	13621	9
13621	9885	9875	9878	9
13621	9885	9875	9874	9
13612	13623	11038	11031	9
13612	13623	11038	11040	9
13612	13613	13614	13615	9
13612	13611	13616	13615	9
13612	13611	13616	13620	9
13614	13621	9885	9875	9
13614	13621	9885	9887	9
13611	13612	13613	13614	9
13611	13616	13615	13614	9
13614	13615	13616	13620	9
13613	13612	13623	13624	9
13613	13612	13623	11038	9
13613	13612	13611	13616	9
13613	13612	13611	13619	9
13613	13614	13621	13622	9
13613	13614	13621	9885	9
13613	13614	13615	13616	9
13613	13614	13615	13618	9
13611	13612	13623	13624	9
13611	13612	13623	11038	9
13611	13612	13613	13617	9
13611	13616	13615	13618	9
13615	13614	13621	13622	9
13615	13614	13621	9885	9
13615	13614	13613	13617	9
13615	13616	13611	13619	9
13619	13611	13616	13620	9
13618	13615	13616	13620	9
13624	13623	11038	11031	9
13624	13623	11038	11040	9
13622	13621	9885	9875	9
13622	13621	9885	9887	9
6492	6491	6490	6501	9
6495	6491	6490	6501	9
6494	6489	6490	6501	9
6497	6489	6490	6501	9
6501	6509	6503	6506	9
6501	6509	6503	6504	9
6490	6491	6492	6499	9
6495	6491	6492	6499	9
6494	6493	6492	6499	9
6496	6493	6492	6499	9
6499	8059	8049	8048	9
6499	8059	8049	8052	9
6490	6501	6509	6503	9
6490	6501	6509	6510	9
6490	6491	6492	6493	9
6490	6489	6494	6493	9
6490	6489	6494	6498	9
6492	6499	8059	8049	9
6492	6499	8059	8061	9
6489	6490	6491	6492	9
6489	6494	6493	6492	9
6492	6493	6494	6498	9
6491	6490	6501	6502	9
6491	6490	6501	6509	9
6491	6490	6489	6494	9
6491	6490	6489	6497	9
6491	6492	6499	6500	9
6491	6492	6499	8059	9
6491	6492	6493	6494	9
6491	6492	6493	6496	9
6489	6490	6501	6502	9
6489	6490	6501	6509	9
6489	6490	6491	6495	9
6489	6494	6493	6496	9
6493	6492	6499	6500	9
6493	6492	6499	8059	9
6493	6492	6491	6495	9
6493	6494	6489	6497	9
6497	6489	6494	6498	9
6496	6493	6494	6498	9
6502	6501	6509	6503	9
6502	6501	6509	6510	9
6500	6499	8059	8049	9
6500	6499	8059	8061	9
6347	6346	6345	6356	9
6350	6346	6345	6356	9
6349	6344	6345	6356	9
6352	6344	6345	6356	9
6356	6364	6358	6359	9
6356	6364	6358	6361	9
6345	6346	6347	6354	9
6350	6346	6347	6354	9
6349	6348	6347	6354	9
6351	6348	6347	6354	9
6354	10234	10224	10223	9
6354	10234	10224	10227	9
6345	6356	6364	6358	9
6345	6356	6364	6365	9
6345	6346	6347	6348	9
6345	6344	6349	6348	9
6345	6344	6349	6353	9
6347	6354	10234	10224	9
6347	6354	10234	10236	9
6344	6345	6346	6347	9
6344	6349	6348	6347	9
6347	6348	6349	6353	9
6346	6345	6356	6357	9
6346	6345	6356	6364	9
6346	6345	6344	6349	9
6346	6345	6344	6352	9
6346	6347	6354	6355	9
6346	6347	6354	10234	9
6346	6347	6348	6349	9
6346	6347	6348	6351	9
6344	6345	6356	6357	9
6344	6345	6356	6364	9
6344	6345	6346	6350	9
6344	6349	6348	6351	9
6348	6347	6354	6355	9
6348	6347	6354	10234	9
6348	6347	6346	6350	9
6348	6349	6344	6352	9
6352	6344	6349	6353	9
6351	6348	6349	6353	9
6357	6356	6364	6358	9
6357	6356	6364	6365	9
6355	6354	10234	10224	9
6355	6354	10234	10236	9
3648	3647	3646	3657	9
3651	3647	3646	3657	9
3650	3645	3646	3657	9
3653	3645	3646	3657	9
3646	3647	3648	3655	9
3651	3647	3648	3655	9
3650	3649	3648	3655	9
3652	3649	3648	3655	9
3655	10964	10957	10958	9
3655	10964	10957	10956	9
3646	3647	3648	3649	9
3646	3645	3650	3649	9
3646	3645	3650	3654	9
3648	3655	10964	10957	9
3648	3655	10964	10966	9
3645	3646	3647	3648	9
3645	3650	3649	3648	9
3648	3649	3650	3654	9
3647	3646	3657	3659	9
3647	3646	3657	3658	9
3647	3646	3645	3650	9
3647	3646	3645	3653	9
3647	3648	3655	3656	9
3647	3648	3655	10964	9
3647	3648	3649	3650	9
3647	3648	3649	3652	9
3645	3646	3657	3659	9
3645	3646	3657	3658	9
3645	3646	3647	3651	9
3645	3650	3649	3652	9
3649	3648	3655	3656	9
3649	3648	3655	10964	9
3649	3648	3647	3651	9
3649	3650	3645	3653	9
3653	3645	3650	3654	9
3652	3649	3650	3654	9
3656	3655	10964	10957	9
3656	3655	10964	10966	9
12466	12465	12464	12475	9
12469	12465	12464	12475	9
12468	12463	12464	12475	9
12471	12463	12464	12475	9
12475	6078	6068	6071	9
12475	6078	6068	6067	9
12464	12465	12466	12473	9
12469	12465	12466	12473	9
12468	12467	12466	12473	9
12470	12467	12466	12473	9
12473	10979	10972	10971	9
12473	10979	10972	10973	9
12464	12475	6078	6068	9
12464	12475	6078	6080	9
12464	12465	12466	12467	9
12464	12463	12468	12467	9
12464	12463	12468	12472	9
12466	12473	10979	10972	9
12466	12473	10979	10981	9
12463	12464	12465	12466	9
12463	12468	12467	12466	9
12466	12467	12468	12472	9
12465	12464	12475	12476	9
12465	12464	12475	6078	9
12465	12464	12463	12468	9
12465	12464	12463	12471	9
12465	12466	12473	12474	9
12465	12466	12473	10979	9
12465	12466	12467	12468	9
12465	12466	12467	12470	9
12463	12464	12475	12476	9
12463	12464	12475	6078	9
12463	12464	12465	12469	9
12463	12468	12467	12470	9
12467	12466	12473	12474	9
12467	12466	12473	10979	9
12467	12466	12465	12469	9
12467	12468	12463	12471	9
12471	12463	12468	12472	9
12470	12467	12468	12472	9
12476	12475	6078	6068	9
12476	12475	6078	6080	9
12474	12473	10979	10972	9
12474	12473	10979	10981	9
2520	2519	2518	2529	9
2523	2519	2518	2529	9
2522	2517	2518	2529	9
2525	2517	2518	2529	9
2529	7383	7377	7380	9
2529	7383	7377	7378	9
2518	2519	2520	2527	9
2523	2519	2520	2527	9
2522	2521	2520	2527	9
2524	2521	2520	2527	9
2501	2500	2506	2527	9
2503	2500	2506	2527	9
2518	2529	7383	7377	9
2518	2529	7383	7384	9
2518	2519	2520	2521	9
2518	2517	2522	2521	9
2518	2517	2522	2526	9
2500	2506	2527	2520	9
2507	2506	2527	2520	9
2517	2518	2519	2520	9
2517	2522	2521	2520	9
2520	2521	2522	2526	9
2519	2518	2529	2530	9
2519	2518	2529	7383	9
2519	2518	2517	2522	9
2519	2518	2517	2525	9
2519	2520	2527	2528	9
2506	2527	2520	2519	9
2519	2520	2521	2522	9
2519	2520	2521	2524	9
2517	2518	2529	2530	9
2517	2518	2529	7383	9
2517	2518	2519	2523	9
2517	2522	2521	2524	9
2521	2520	2527	2528	9
2506	2527	2520	2521	9
2521	2520	2519	2523	9
2521	2522	2517	2525	9
2525	2517	2522	2526	9
2524	2521	2522	2526	9
2530	2529	7383	7377	9
2530	2529	7383	7384	9
2500	2506	2527	2528	9
2507	2506	2527	2528	9
3003	3002	3001	3012	9
3006	3002	3001	3012	9
3005	3000	3001	3012	9
3008	3000	3001	3012	9
3001	3002	3003	3010	9
3006	3002	3003	3010	9
3005	3004	3003	3010	9
3007	3004	3003	3010	9
3010	6917	6911	6912	9
3010	6917	6911	6914	9
3001	3002	3003	3004	9
3001	3000	3005	3004	9
3001	3000	3005	3009	9
3003	3010	6917	6911	9
3003	3010	6917	6918	9
3000	3001	3002	3003	9
3000	3005	3004	3003	9
3003	3004	3005	3009	9
3002	3001	3012	3014	9
3002	3001	3012	3013	9
3002	3001	3000	3005	9
3002	3001	3000	3008	9
3002	3003	3010	3011	9
3002	3003	3010	6917	9
3002	3003	3004	3005	9
3002	3003	3004	3007	9
3000	3001	3012	3014	9
3000	3001	3012	3013	9
3000	3001	3002	3006	9
3000	3005	3004	3007	9
3004	3003	3010	3011	9
3004	3003	3010	6917	9
3004	3003	3002	3006	9
3004	3005	3000	3008	9
3008	3000	3005	3009	9
3007	3004	3005	3009	9
3011	3010	6917	6911	9
3011	3010	6917	6918	9
6565	6564	6563	6574	9
6568	6564	6563	6574	9
6567	6562	6563	6574	9
6570	6562	6563	6574	9
6574	6582	6576	6577	9
6574	6582	6576	6579	9
6563	6564	6565	6572	9
6568	6564	6565	6572	9
6567	6566	6565	6572	9
6569	6566	6565	6572	9
6572	8097	8091	8092	9
6572	8097	8091	8094	9
6563	6574	6582	6576	9
6563	6574	6582	6583	9
6563	6564	6565	6566	9
6563	6562	6567	6566	9
6563	6562	6567	6571	9
6565	6572	8097	8091	9
6565	6572	8097	8098	9
6562	6563	6564	6565	9
6562	6567	6566	6565	9
6565	6566	6567	6571	9
6564	6563	6574	6575	9
6564	6563	6574	6582	9
6564	6563	6562	6567	9
6564	6563	6562	6570	9
6564	6565	6572	6573	9
6564	6565	6572	8097	9
6564	6565	6566	6567	9
6564	6565	6566	6569	9
6562	6563	6574	6575	9
6562	6563	6574	6582	9
6562	6563	6564	6568	9
6562	6567	6566	6569	9
6566	6565	6572	6573	9
6566	6565	6572	8097	9
6566	6565	6564	6568	9
6566	6567	6562	6570	9
6570	6562	6567	6571	9
6569	6566	6567	6571	9
6575	6574	6582	6576	9
6575	6574	6582	6583	9
6573	6572	8097	8091	9
6573	6572	8097	8098	9
989	988	987	998	9
992	988	987	998	9
991	986	987	998	9
994	986	987	998	9
998	9695	9688	9687	9
998	9695	9688	9689	9
987	988	989	996	9
992	988	989	996	9
991	990	989	996	9
993	990	989	996	9
972	969	975	996	9
970	969	975	996	9
987	998	9695	9688	9
987	998	9695	9697	9
987	988	989	990	9
987	986	991	990	9
987	986	991	995	9
969	975	996	989	9
976	975	996	989	9
986	987	988	989	9
986	991	990	989	9
989	990	991	995	9
988	987	998	999	9
988	987	998	9695	9
988	987	986	991	9
988	987	986	994	9
988	989	996	997	9
975	996	989	988	9
988	989	990	991	9
988	989	990	993	9
986	987	998	999	9
986	987	998	9695	9
986	987	988	992	9
986	991	990	993	9
990	989	996	997	9
975	996	989	990	9
990	989	988	992	9
990	991	986	994	9
994	986	991	995	9
993	990	991	995	9
999	998	9695	9688	9
999	998	9695	9697	9
969	975	996	997	9
976	975	996	997	9
773	772	771	782	9
776	772	771	782	9
775	770	771	782	9
778	770	771	782	9
756	753	759	782	9
754	753	759	782	9
771	772	773	780	9
776	772	773	780	9
775	774	773	780	9
777	774	773	780	9
1298	1297	1295	780	9
1302	1297	1295	780	9
753	759	782	771	9
760	759	782	771	9
771	772	773	774	9
771	770	775	774	9
771	770	775	779	9
1297	1295	780	773	9
1296	1295	780	773	9
770	771	772	773	9
770	775	774	773	9
773	774	775	779	9
772	771	782	783	9
759	782	771	772	9
772	771	770	775	9
772	771	770	778	9
772	773	780	781	9
1295	780	773	772	9
772	773	774	775	9
772	773	774	777	9
770	771	782	783	9
759	782	771	770	9
770	771	772	776	9
770	775	774	777	9
774	773	780	781	9
1295	780	773	774	9
774	773	772	776	9
774	775	770	778	9
778	770	775	779	9
777	774	775	779	9
753	759	782	783	9
760	759	782	783	9
1297	1295	780	781	9
1296	1295	780	781	9
1329	1330	1331	1338	9
1334	1330	1331	1338	9
1333	1332	1331	1338	9
1335	1332	1331	1338	9
1312	1311	1317	1338	9
1314	1311	1317	1338	9
1331	1330	1329	1340	9
1334	1330	1329	1340	9
1333	1328	1329	1340	9
1336	1328	1329	1340	9
1340	5575	5569	5570	9
1340	5575	5569	5572	9
1311	1317	1338	1331	9
1318	1317	1338	1331	9
1331	1330	1329	1328	9
1331	1332	1333	1328	9
1331	1332	1333	1337	9
1329	1340	5575	5569	9
1329	1340	5575	5576	9
1332	1331	1330	1329	9
1332	1333	1328	1329	9
1329	1328	1333	1337	9
1330	1331	1338	1339	9
1317	1338	1331	1330	9
1330	1331	1332	1333	9
1330	1331	1332	1335	9
1330	1329	1340	1341	9
1330	1329	1340	5575	9
1330	1329	1328	1333	9
1330	1329	1328	1336	9
1332	1331	1338	1339	9
1317	1338	1331	1332	9
1332	1331	1330	1334	9
1332	1333	1328	1336	9
1328	1329	1340	1341	9
1328	1329	1340	5575	9
1328	1329	1330	1334	9
1328	1333	1332	1335	9
1335	1332	1333	1337	9
1336	1328	1333	1337	9
1311	1317	1338	1339	9
1318	1317	1338	1339	9
1341	1340	5575	5569	9
1341	1340	5575	5576	9
3783	3782	3781	3792	9
3786	3782	3781	3792	9
3785	3780	3781	3792	9
3788	3780	3781	3792	9
3781	3782	3783	3790	9
3786	3782	3783	3790	9
3785	3784	3783	3790	9
3787	3784	3783	3790	9
1468	1469	1476	3790	9
1470	1469	1476	3790	9
3781	3782	3783	3784	9
3781	3780	3785	3784	9
3781	3780	3785	3789	9
1469	1476	3790	3783	9
1478	1476	3790	3783	9
3780	3781	3782	3783	9
3780	3785	3784	3783	9
3783	3784	3785	3789	9
3782	3781	3792	3794	9
3782	3781	3792	3793	9
3782	3781	3780	3785	9
3782	3781	3780	3788	9
3782	3783	3790	3791	9
1476	3790	3783	3782	9
3782	3783	3784	3785	9
3782	3783	3784	3787	9
3780	3781	3792	3794	9
3780	3781	3792	3793	9
3780	3781	3782	3786	9
3780	3785	3784	3787	9
3784	3783	3790	3791	9
1476	3790	3783	3784	9
3784	3783	3782	3786	9
3784	3785	3780	3788	9
3788	3780	3785	3789	9
3787	3784	3785	3789	9
1469	1476	3790	3791	9
1478	1476	3790	3791	9
12130	12129	12128	12139	9
12133	12129	12128	12139	9
12132	12127	12128	12139	9
12135	12127	12128	12139	9
12139	9636	9629	9628	9
12139	9636	9629	9630	9
12128	12129	12130	12137	9
12133	12129	12130	12137	9
12132	12131	12130	12137	9
12134	12131	12130	12137	9
12137	5580	5573	5572	9
12137	5580	5573	5574	9
12128	12139	9636	9629	9
12128	12139	9636	9638	9
12128	12129	12130	12131	9
12128	12127	12132	12131	9
12128	12127	12132	12136	9
12130	12137	5580	5573	9
12130	12137	5580	5582	9
12127	12128	12129	12130	9
12127	12132	12131	12130	9
12130	12131	12132	12136	9
12129	12128	12139	12140	9
12129	12128	12139	9636	9
12129	12128	12127	12132	9
12129	12128	12127	12135	9
12129	12130	12137	12138	9
12129	12130	12137	5580	9
12129	12130	12131	12132	9
12129	12130	12131	12134	9
12127	12128	12139	12140	9
12127	12128	12139	9636	9
12127	12128	12129	12133	9
12127	12132	12131	12134	9
12131	12130	12137	12138	9
12131	12130	12137	5580	9
12131	12130	12129	12133	9
12131	12132	12127	12135	9
12135	12127	12132	12136	9
12134	12131	12132	12136	9
12140	12139	9636	9629	9
12140	12139	9636	9638	9
12138	12137	5580	5573	9
12138	12137	5580	5582	9
13346	13347	13348	13355	9
13351	13347	13348	13355	9
13350	13349	13348	13355	9
13352	13349	13348	13355	9
13355	8601	8591	8590	9
13355	8601	8591	8594	9
13348	13347	13346	13357	9
13351	13347	13346	13357	9
13350	13345	13346	13357	9
13353	13345	13346	13357	9
13357	8367	8357	8360	9
13357	8367	8357	8356	9
13348	13355	8601	8591	9
13348	13355	8601	8603	9
13348	13347	13346	13345	9
13348	13349	13350	13345	9
13348	13349	13350	13354	9
13346	13357	8367	8357	9
13346	13357	8367	8369	9
13349	13348	13347	13346	9
13349	13350	13345	13346	9
13346	13345	13350	13354	9
13347	13348	13355	13356	9
13347	13348	13355	8601	9
13347	13348	13349	13350	9
13347	13348	13349	13352	9
13347	13346	13357	13358	9
13347	13346	13357	8367	9
13347	13346	13345	13350	9
13347	13346	13345	13353	9
13349	13348	13355	13356	9
13349	13348	13355	8601	9
13349	13348	13347	13351	9
13349	13350	13345	13353	9
13345	13346	13357	13358	9
13345	13346	13357	8367	9
13345	13346	13347	13351	9
13345	13350	13349	13352	9
13352	13349	13350	13354	9
13353	13345	13350	13354	9
13356	13355	8601	8591	9
13356	13355	8601	8603	9
13358	13357	8367	8357	9
13358	13357	8367	8369	9
12088	12087	12086	12097	9
12091	12087	12086	12097	9
12090	12085	12086	12097	9
12093	12085	12086	12097	9
12097	5537	5527	5530	9
12097	5537	5527	5526	9
12086	12087	12088	12095	9
12091	12087	12088	12095	9
12090	12089	12088	12095	9
12092	12089	12088	12095	9
12095	5726	5719	5720	9
12095	5726	5719	5718	9
12086	12097	5537	5527	9
12086	12097	5537	5539	9
12086	12087	12088	12089	9
12086	12085	12090	12089	9
12086	12085	12090	12094	9
12088	12095	5726	5719	9
12088	12095	5726	5728	9
12085	12086	12087	12088	9
12085	12090	12089	12088	9
12088	12089	12090	12094	9
12087	12086	12097	12098	9
12087	12086	12097	5537	9
12087	12086	12085	12090	9
12087	12086	12085	12093	9
12087	12088	12095	12096	9
12087	12088	12095	5726	9
12087	12088	12089	12090	9
12087	12088	12089	12092	9
12085	12086	12097	12098	9
12085	12086	12097	5537	9
12085	12086	12087	12091	9
12085	12090	12089	12092	9
12089	12088	12095	12096	9
12089	12088	12095	5726	9
12089	12088	12087	12091	9
12089	12090	12085	12093	9
12093	12085	12090	12094	9
12092	12089	12090	12094	9
12098	12097	5537	5527	9
12098	12097	5537	5539	9
12096	12095	5726	5719	9
12096	12095	5726	5728	9
9177	9176	9175	9186	9
9180	9176	9175	9186	9
9179	9174	9175	9186	9
9182	9174	9175	9186	9
9186	9194	9188	9191	9
9186	9194	9188	9189	9
9175	9176	9177	9184	9
9180	9176	9177	9184	9
9179	9178	9177	9184	9
9181	9178	9177	9184	9
9184	4897	4887	4886	9
9184	4897	4887	4890	9
9175	9186	9194	9188	9
9175	9186	9194	9195	9
9175	9176	9177	9178	9
9175	9174	9179	9178	9
9175	9174	9179	9183	9
9177	9184	4897	4887	9
9177	9184	4897	4899	9
9174	9175	9176	9177	9
9174	9179	9178	9177	9
9177	9178	9179	9183	9
9176	9175	9186	9187	9
9176	9175	9186	9194	9
9176	9175	9174	9179	9
9176	9175	9174	9182	9
9176	9177	9184	9185	9
9176	9177	9184	4897	9
9176	9177	9178	9179	9
9176	9177	9178	9181	9
9174	9175	9186	9187	9
9174	9175	9186	9194	9
9174	9175	9176	9180	9
9174	9179	9178	9181	9
9178	9177	9184	9185	9
9178	9177	9184	4897	9
9178	9177	9176	9180	9
9178	9179	9174	9182	9
9182	9174	9179	9183	9
9181	9178	9179	9183	9
9187	9186	9194	9188	9
9187	9186	9194	9195	9
9185	9184	4897	4887	9
9185	9184	4897	4899	9
1191	1190	1189	1200	9
1194	1190	1189	1200	9
1193	1188	1189	1200	9
1196	1188	1189	1200	9
1200	5809	5803	5806	9
1200	5809	5803	5804	9
1189	1190	1191	1198	9
1194	1190	1191	1198	9
1193	1192	1191	1198	9
1195	1192	1191	1198	9
1172	1171	1177	1198	9
1174	1171	1177	1198	9
1189	1200	5809	5803	9
1189	1200	5809	5810	9
1189	1190	1191	1192	9
1189	1188	1193	1192	9
1189	1188	1193	1197	9
1171	1177	1198	1191	9
1178	1177	1198	1191	9
1188	1189	1190	1191	9
1188	1193	1192	1191	9
1191	1192	1193	1197	9
1190	1189	1200	1201	9
1190	1189	1200	5809	9
1190	1189	1188	1193	9
1190	1189	1188	1196	9
1190	1191	1198	1199	9
1177	1198	1191	1190	9
1190	1191	1192	1193	9
1190	1191	1192	1195	9
1188	1189	1200	1201	9
1188	1189	1200	5809	9
1188	1189	1190	1194	9
1188	1193	1192	1195	9
1192	1191	1198	1199	9
1177	1198	1191	1192	9
1192	1191	1190	1194	9
1192	1193	1188	1196	9
1196	1188	1193	1197	9
1195	1192	1193	1197	9
1201	1200	5809	5803	9
1201	1200	5809	5810	9
1171	1177	1198	1199	9
1178	1177	1198	1199	9
12900	12899	12898	12909	9
12903	12899	12898	12909	9
12902	12897	12898	12909	9
12905	12897	12898	12909	9
12909	7185	7175	7178	9
12909	7185	7175	7174	9
12898	12899	12900	12907	9
12903	12899	12900	12907	9
12902	12901	12900	12907	9
12904	12901	12900	12907	9
12907	7403	7396	7395	9
12907	7403	7396	7397	9
12898	12909	7185	7175	9
12898	12909	7185	7187	9
12898	12899	12900	12901	9
12898	12897	12902	12901	9
12898	12897	12902	12906	9
12900	12907	7403	7396	9
12900	12907	7403	7405	9
12897	12898	12899	12900	9
12897	12902	12901	12900	9
12900	12901	12902	12906	9
12899	12898	12909	12910	9
12899	12898	12909	7185	9
12899	12898	12897	12902	9
12899	12898	12897	12905	9
12899	12900	12907	12908	9
12899	12900	12907	7403	9
12899	12900	12901	12902	9
12899	12900	12901	12904	9
12897	12898	12909	12910	9
12897	12898	12909	7185	9
12897	12898	12899	12903	9
12897	12902	12901	12904	9
12901	12900	12907	12908	9
12901	12900	12907	7403	9
12901	12900	12899	12903	9
12901	12902	12897	12905	9
12905	12897	12902	12906	9
12904	12901	12902	12906	9
12910	12909	7185	7175	9
12910	12909	7185	7187	9
12908	12907	7403	7396	9
12908	12907	7403	7405	9
3498	3497	3496	3507	9
3501	3497	3496	3507	9
3500	3495	3496	3507	9
3503	3495	3496	3507	9
3496	3497	3498	3505	9
3501	3497	3498	3505	9
3500	3499	3498	3505	9
3502	3499	3498	3505	9
3505	9652	9642	9645	9
3505	9652	9642	9641	9
3496	3497	3498	3499	9
3496	3495	3500	3499	9
3496	3495	3500	3504	9
3498	3505	9652	9642	9
3498	3505	9652	9654	9
3495	3496	3497	3498	9
3495	3500	3499	3498	9
3498	3499	3500	3504	9
3497	3496	3507	3508	9
3497	3496	3507	3509	9
3497	3496	3495	3500	9
3497	3496	3495	3503	9
3497	3498	3505	3506	9
3497	3498	3505	9652	9
3497	3498	3499	3500	9
3497	3498	3499	3502	9
3495	3496	3507	3508	9
3495	3496	3507	3509	9
3495	3496	3497	3501	9
3495	3500	3499	3502	9
3499	3498	3505	3506	9
3499	3498	3505	9652	9
3499	3498	3497	3501	9
3499	3500	3495	3503	9
3503	3495	3500	3504	9
3502	3499	3500	3504	9
3506	3505	9652	9642	9
3506	3505	9652	9654	9
3076	3077	3078	3085	9
3081	3077	3078	3085	9
3080	3079	3078	3085	9
3082	3079	3078	3085	9
3085	7573	7567	7568	9
3085	7573	7567	7570	9
3078	3077	3076	3087	9
3081	3077	3076	3087	9
3080	3075	3076	3087	9
3083	3075	3076	3087	9
3078	3085	7573	7567	9
3078	3085	7573	7574	9
3075	3076	3077	3078	9
3075	3080	3079	3078	9
3078	3079	3080	3084	9
3076	3077	3078	3079	9
3076	3075	3080	3079	9
3076	3075	3080	3084	9
3077	3078	3085	3086	9
3077	3078	3085	7573	9
3077	3078	3079	3080	9
3077	3078	3079	3082	9
3077	3076	3087	3089	9
3077	3076	3087	3088	9
3077	3076	3075	3080	9
3077	3076	3075	3083	9
3079	3078	3085	3086	9
3079	3078	3085	7573	9
3079	3078	3077	3081	9
3079	3080	3075	3083	9
3075	3076	3087	3089	9
3075	3076	3087	3088	9
3075	3076	3077	3081	9
3075	3080	3079	3082	9
3082	3079	3080	3084	9
3083	3075	3080	3084	9
3086	3085	7573	7567	9
3086	3085	7573	7574	9
12760	12759	12758	12769	9
12763	12759	12758	12769	9
12762	12757	12758	12769	9
12765	12757	12758	12769	9
12769	6850	6840	6839	9
12769	6850	6840	6843	9
12758	12759	12760	12767	9
12763	12759	12760	12767	9
12762	12761	12760	12767	9
12764	12761	12760	12767	9
12767	6719	6709	6708	9
12767	6719	6709	6712	9
12758	12769	6850	6840	9
12758	12769	6850	6852	9
12758	12759	12760	12761	9
12758	12757	12762	12761	9
12758	12757	12762	12766	9
12760	12767	6719	6709	9
12760	12767	6719	6721	9
12757	12758	12759	12760	9
12757	12762	12761	12760	9
12760	12761	12762	12766	9
12759	12758	12769	12770	9
12759	12758	12769	6850	9
12759	12758	12757	12762	9
12759	12758	12757	12765	9
12759	12760	12767	12768	9
12759	12760	12767	6719	9
12759	12760	12761	12762	9
12759	12760	12761	12764	9
12757	12758	12769	12770	9
12757	12758	12769	6850	9
12757	12758	12759	12763	9
12757	12762	12761	12764	9
12761	12760	12767	12768	9
12761	12760	12767	6719	9
12761	12760	12759	12763	9
12761	12762	12757	12765	9
12765	12757	12762	12766	9
12764	12761	12762	12766	9
12770	12769	6850	6840	9
12770	12769	6850	6852	9
12768	12767	6719	6709	9
12768	12767	6719	6721	9
3093	3092	3091	3102	9
3096	3092	3091	3102	9
3095	3090	3091	3102	9
3098	3090	3091	3102	9
3091	3092	3093	3100	9
3096	3092	3093	3100	9
3095	3094	3093	3100	9
3097	3094	3093	3100	9
3100	7646	7640	7643	9
3100	7646	7640	7641	9
3091	3092	3093	3094	9
3091	3090	3095	3094	9
3091	3090	3095	3099	9
3093	3100	7646	7640	9
3093	3100	7646	7647	9
3090	3091	3092	3093	9
3090	3095	3094	3093	9
3093	3094	3095	3099	9
3092	3091	3102	3104	9
3092	3091	3102	3103	9
3092	3091	3090	3095	9
3092	3091	3090	3098	9
3092	3093	3100	3101	9
3092	3093	3100	7646	9
3092	3093	3094	3095	9
3092	3093	3094	3097	9
3090	3091	3102	3104	9
3090	3091	3102	3103	9
3090	3091	3092	3096	9
3090	3095	3094	3097	9
3094	3093	3100	3101	9
3094	3093	3100	7646	9
3094	3093	3092	3096	9
3094	3095	3090	3098	9
3098	3090	3095	3099	9
3097	3094	3095	3099	9
3101	3100	7646	7640	9
3101	3100	7646	7647	9
8109	8108	8107	8118	9
8112	8108	8107	8118	9
8111	8106	8107	8118	9
8114	8106	8107	8118	9
8118	8126	8120	8121	9
8118	8126	8120	8123	9
8107	8108	8109	8116	9
8112	8108	8109	8116	9
8111	8110	8109	8116	9
8113	8110	8109	8116	9
8116	8103	8093	8092	9
8116	8103	8093	8096	9
8107	8118	8126	8120	9
8107	8118	8126	8127	9
8107	8108	8109	8110	9
8107	8106	8111	8110	9
8107	8106	8111	8115	9
8109	8116	8103	8093	9
8109	8116	8103	8105	9
8106	8107	8108	8109	9
8106	8111	8110	8109	9
8109	8110	8111	8115	9
8108	8107	8118	8119	9
8108	8107	8118	8126	9
8108	8107	8106	8111	9
8108	8107	8106	8114	9
8108	8109	8116	8117	9
8108	8109	8116	8103	9
8108	8109	8110	8111	9
8108	8109	8110	8113	9
8106	8107	8118	8119	9
8106	8107	8118	8126	9
8106	8107	8108	8112	9
8106	8111	8110	8113	9
8110	8109	8116	8117	9
8110	8109	8116	8103	9
8110	8109	8108	8112	9
8110	8111	8106	8114	9
8114	8106	8111	8115	9
8113	8110	8111	8115	9
8119	8118	8126	8120	9
8119	8118	8126	8127	9
8117	8116	8103	8093	9
8117	8116	8103	8105	9
12494	12493	12492	12503	9
12497	12493	12492	12503	9
12496	12491	12492	12503	9
12499	12491	12492	12503	9
12503	6164	6157	6158	9
12503	6164	6157	6156	9
12492	12493	12494	12501	9
12497	12493	12494	12501	9
12496	12495	12494	12501	9
12498	12495	12494	12501	9
12501	7068	7061	7062	9
12501	7068	7061	7060	9
12492	12503	6164	6157	9
12492	12503	6164	6166	9
12492	12493	12494	12495	9
12492	12491	12496	12495	9
12492	12491	12496	12500	9
12494	12501	7068	7061	9
12494	12501	7068	7070	9
12491	12492	12493	12494	9
12491	12496	12495	12494	9
12494	12495	12496	12500	9
12493	12492	12503	12504	9
12493	12492	12503	6164	9
12493	12492	12491	12496	9
12493	12492	12491	12499	9
12493	12494	12501	12502	9
12493	12494	12501	7068	9
12493	12494	12495	12496	9
12493	12494	12495	12498	9
12491	12492	12503	12504	9
12491	12492	12503	6164	9
12491	12492	12493	12497	9
12491	12496	12495	12498	9
12495	12494	12501	12502	9
12495	12494	12501	7068	9
12495	12494	12493	12497	9
12495	12496	12491	12499	9
12499	12491	12496	12500	9
12498	12495	12496	12500	9
12504	12503	6164	6157	9
12504	12503	6164	6166	9
12502	12501	7068	7061	9
12502	12501	7068	7070	9
4075	4074	4073	4084	9
4078	4074	4073	4084	9
4077	4072	4073	4084	9
4080	4072	4073	4084	9
4084	4092	4086	4087	9
4084	4092	4086	4089	9
4073	4074	4075	4082	9
4078	4074	4075	4082	9
4077	4076	4075	4082	9
4079	4076	4075	4082	9
4082	9025	9015	9014	9
4082	9025	9015	9018	9
4073	4084	4092	4086	9
4073	4084	4092	4093	9
4073	4074	4075	4076	9
4073	4072	4077	4076	9
4073	4072	4077	4081	9
4075	4082	9025	9015	9
4075	4082	9025	9027	9
4072	4073	4074	4075	9
4072	4077	4076	4075	9
4075	4076	4077	4081	9
4074	4073	4084	4085	9
4074	4073	4084	4092	9
4074	4073	4072	4077	9
4074	4073	4072	4080	9
4074	4075	4082	4083	9
4074	4075	4082	9025	9
4074	4075	4076	4077	9
4074	4075	4076	4079	9
4072	4073	4084	4085	9
4072	4073	4084	4092	9
4072	4073	4074	4078	9
4072	4077	4076	4079	9
4076	4075	4082	4083	9
4076	4075	4082	9025	9
4076	4075	4074	4078	9
4076	4077	4072	4080	9
4080	4072	4077	4081	9
4079	4076	4077	4081	9
4085	4084	4092	4086	9
4085	4084	4092	4093	9
4083	4082	9025	9015	9
4083	4082	9025	9027	9
11738	11737	11736	11747	9
11741	11737	11736	11747	9
11740	11735	11736	11747	9
11743	11735	11736	11747	9
11747	4794	4787	4786	9
11747	4794	4787	4788	9
11736	11737	11738	11745	9
11741	11737	11738	11745	9
11740	11739	11738	11745	9
11742	11739	11738	11745	9
11745	6849	6842	6843	9
11745	6849	6842	6841	9
11736	11747	4794	4787	9
11736	11747	4794	4796	9
11736	11737	11738	11739	9
11736	11735	11740	11739	9
11736	11735	11740	11744	9
11738	11745	6849	6842	9
11738	11745	6849	6851	9
11735	11736	11737	11738	9
11735	11740	11739	11738	9
11738	11739	11740	11744	9
11737	11736	11747	11748	9
11737	11736	11747	4794	9
11737	11736	11735	11740	9
11737	11736	11735	11743	9
11737	11738	11745	11746	9
11737	11738	11745	6849	9
11737	11738	11739	11740	9
11737	11738	11739	11742	9
11735	11736	11747	11748	9
11735	11736	11747	4794	9
11735	11736	11737	11741	9
11735	11740	11739	11742	9
11739	11738	11745	11746	9
11739	11738	11745	6849	9
11739	11738	11737	11741	9
11739	11740	11735	11743	9
11743	11735	11740	11744	9
11742	11739	11740	11744	9
11748	11747	4794	4787	9
11748	11747	4794	4796	9
11746	11745	6849	6842	9
11746	11745	6849	6851	9
9380	9379	9378	9389	9
9383	9379	9378	9389	9
9382	9377	9378	9389	9
9385	9377	9378	9389	9
9389	9397	9391	9394	9
9389	9397	9391	9392	9
9378	9379	9380	9387	9
9383	9379	9380	9387	9
9382	9381	9380	9387	9
9384	9381	9380	9387	9
9387	10205	10195	10194	9
9387	10205	10195	10198	9
9378	9389	9397	9391	9
9378	9389	9397	9398	9
9378	9379	9380	9381	9
9378	9377	9382	9381	9
9378	9377	9382	9386	9
9380	9387	10205	10195	9
9380	9387	10205	10207	9
9377	9378	9379	9380	9
9377	9382	9381	9380	9
9380	9381	9382	9386	9
9379	9378	9389	9390	9
9379	9378	9389	9397	9
9379	9378	9377	9382	9
9379	9378	9377	9385	9
9379	9380	9387	9388	9
9379	9380	9387	10205	9
9379	9380	9381	9382	9
9379	9380	9381	9384	9
9377	9378	9389	9390	9
9377	9378	9389	9397	9
9377	9378	9379	9383	9
9377	9382	9381	9384	9
9381	9380	9387	9388	9
9381	9380	9387	10205	9
9381	9380	9379	9383	9
9381	9382	9377	9385	9
9385	9377	9382	9386	9
9384	9381	9382	9386	9
9390	9389	9397	9391	9
9390	9389	9397	9398	9
9388	9387	10205	10195	9
9388	9387	10205	10207	9
12788	12787	12786	12797	9
12791	12787	12786	12797	9
12790	12785	12786	12797	9
12793	12785	12786	12797	9
1682	1683	1690	12797	9
1684	1683	1690	12797	9
12786	12787	12788	12795	9
12791	12787	12788	12795	9
12790	12789	12788	12795	9
12792	12789	12788	12795	9
12795	6777	6767	6766	9
12795	6777	6767	6770	9
1683	1690	12797	12786	9
1692	1690	12797	12786	9
12786	12787	12788	12789	9
12786	12785	12790	12789	9
12786	12785	12790	12794	9
12788	12795	6777	6767	9
12788	12795	6777	6779	9
12785	12786	12787	12788	9
12785	12790	12789	12788	9
12788	12789	12790	12794	9
12787	12786	12797	12798	9
1690	12797	12786	12787	9
12787	12786	12785	12790	9
12787	12786	12785	12793	9
12787	12788	12795	12796	9
12787	12788	12795	6777	9
12787	12788	12789	12790	9
12787	12788	12789	12792	9
12785	12786	12797	12798	9
1690	12797	12786	12785	9
12785	12786	12787	12791	9
12785	12790	12789	12792	9
12789	12788	12795	12796	9
12789	12788	12795	6777	9
12789	12788	12787	12791	9
12789	12790	12785	12793	9
12793	12785	12790	12794	9
12792	12789	12790	12794	9
1683	1690	12797	12798	9
1692	1690	12797	12798	9
12796	12795	6777	6767	9
12796	12795	6777	6779	9
13796	13795	13794	13805	9
13799	13795	13794	13805	9
13798	13793	13794	13805	9
13801	13793	13794	13805	9
1963	1962	1969	13805	9
1961	1962	1969	13805	9
13794	13795	13796	13803	9
13799	13795	13796	13803	9
13798	13797	13796	13803	9
13800	13797	13796	13803	9
527	526	528	13803	9
525	526	528	13803	9
1962	1969	13805	13794	9
1971	1969	13805	13794	9
13794	13795	13796	13797	9
13794	13793	13798	13797	9
13794	13793	13798	13802	9
526	528	13803	13796	9
529	528	13803	13796	9
13793	13794	13795	13796	9
13793	13798	13797	13796	9
13796	13797	13798	13802	9
13795	13794	13805	13806	9
1969	13805	13794	13795	9
13795	13794	13793	13798	9
13795	13794	13793	13801	9
13795	13796	13803	13804	9
528	13803	13796	13795	9
13795	13796	13797	13798	9
13795	13796	13797	13800	9
13793	13794	13805	13806	9
1969	13805	13794	13793	9
13793	13794	13795	13799	9
13793	13798	13797	13800	9
13797	13796	13803	13804	9
528	13803	13796	13797	9
13797	13796	13795	13799	9
13797	13798	13793	13801	9
13801	13793	13798	13802	9
13800	13797	13798	13802	9
1962	1969	13805	13806	9
1971	1969	13805	13806	9
526	528	13803	13804	9
529	528	13803	13804	9
10504	10503	10502	10513	9
10507	10503	10502	10513	9
10506	10501	10502	10513	9
10509	10501	10502	10513	9
10513	10521	10515	10516	9
10513	10521	10515	10518	9
10502	10503	10504	10511	9
10507	10503	10504	10511	9
10506	10505	10504	10511	9
10508	10505	10504	10511	9
10511	6193	6186	6187	9
10511	6193	6186	6185	9
10502	10513	10521	10515	9
10502	10513	10521	10522	9
10502	10503	10504	10505	9
10502	10501	10506	10505	9
10502	10501	10506	10510	9
10504	10511	6193	6186	9
10504	10511	6193	6195	9
10501	10502	10503	10504	9
10501	10506	10505	10504	9
10504	10505	10506	10510	9
10503	10502	10513	10514	9
10503	10502	10513	10521	9
10503	10502	10501	10506	9
10503	10502	10501	10509	9
10503	10504	10511	10512	9
10503	10504	10511	6193	9
10503	10504	10505	10506	9
10503	10504	10505	10508	9
10501	10502	10513	10514	9
10501	10502	10513	10521	9
10501	10502	10503	10507	9
10501	10506	10505	10508	9
10505	10504	10511	10512	9
10505	10504	10511	6193	9
10505	10504	10503	10507	9
10505	10506	10501	10509	9
10509	10501	10506	10510	9
10508	10505	10506	10510	9
10514	10513	10521	10515	9
10514	10513	10521	10522	9
10512	10511	6193	6186	9
10512	10511	6193	6195	9
9599	9598	9597	9608	9
9602	9598	9597	9608	9
9601	9596	9597	9608	9
9604	9596	9597	9608	9
9608	9616	9610	9611	9
9608	9616	9610	9613	9
9597	9598	9599	9606	9
9602	9598	9599	9606	9
9601	9600	9599	9606	9
9603	9600	9599	9606	9
9606	4156	4146	4145	9
9606	4156	4146	4149	9
9597	9608	9616	9610	9
9597	9608	9616	9617	9
9597	9598	9599	9600	9
9597	9596	9601	9600	9
9597	9596	9601	9605	9
9599	9606	4156	4146	9
9599	9606	4156	4158	9
9596	9597	9598	9599	9
9596	9601	9600	9599	9
9599	9600	9601	9605	9
9598	9597	9608	9609	9
9598	9597	9608	9616	9
9598	9597	9596	9601	9
9598	9597	9596	9604	9
9598	9599	9606	9607	9
9598	9599	9606	4156	9
9598	9599	9600	9601	9
9598	9599	9600	9603	9
9596	9597	9608	9609	9
9596	9597	9608	9616	9
9596	9597	9598	9602	9
9596	9601	9600	9603	9
9600	9599	9606	9607	9
9600	9599	9606	4156	9
9600	9599	9598	9602	9
9600	9601	9596	9604	9
9604	9596	9601	9605	9
9603	9600	9601	9605	9
9609	9608	9616	9610	9
9609	9608	9616	9617	9
9607	9606	4156	4146	9
9607	9606	4156	4158	9
3796	3797	3798	3805	9
3801	3797	3798	3805	9
3800	3799	3798	3805	9
3802	3799	3798	3805	9
2381	2380	2387	3805	9
2379	2380	2387	3805	9
3798	3797	3796	3807	9
3801	3797	3796	3807	9
3800	3795	3796	3807	9
3803	3795	3796	3807	9
2380	2387	3805	3798	9
2389	2387	3805	3798	9
3795	3796	3797	3798	9
3795	3800	3799	3798	9
3798	3799	3800	3804	9
3796	3797	3798	3799	9
3796	3795	3800	3799	9
3796	3795	3800	3804	9
3797	3798	3805	3806	9
2387	3805	3798	3797	9
3797	3798	3799	3800	9
3797	3798	3799	3802	9
3797	3796	3807	3808	9
3797	3796	3807	3809	9
3797	3796	3795	3800	9
3797	3796	3795	3803	9
3799	3798	3805	3806	9
2387	3805	3798	3799	9
3799	3798	3797	3801	9
3799	3800	3795	3803	9
3795	3796	3807	3808	9
3795	3796	3807	3809	9
3795	3796	3797	3801	9
3795	3800	3799	3802	9
3802	3799	3800	3804	9
3803	3795	3800	3804	9
2380	2387	3805	3806	9
2389	2387	3805	3806	9
12480	12479	12478	12489	9
12483	12479	12478	12489	9
12482	12477	12478	12489	9
12485	12477	12478	12489	9
12489	6107	6097	6100	9
12489	6107	6097	6096	9
12478	12479	12480	12487	9
12483	12479	12480	12487	9
12482	12481	12480	12487	9
12484	12481	12480	12487	9
12487	7579	7569	7568	9
12487	7579	7569	7572	9
12478	12489	6107	6097	9
12478	12489	6107	6109	9
12478	12479	12480	12481	9
12478	12477	12482	12481	9
12478	12477	12482	12486	9
12480	12487	7579	7569	9
12480	12487	7579	7581	9
12477	12478	12479	12480	9
12477	12482	12481	12480	9
12480	12481	12482	12486	9
12479	12478	12489	12490	9
12479	12478	12489	6107	9
12479	12478	12477	12482	9
12479	12478	12477	12485	9
12479	12480	12487	12488	9
12479	12480	12487	7579	9
12479	12480	12481	12482	9
12479	12480	12481	12484	9
12477	12478	12489	12490	9
12477	12478	12489	6107	9
12477	12478	12479	12483	9
12477	12482	12481	12484	9
12481	12480	12487	12488	9
12481	12480	12487	7579	9
12481	12480	12479	12483	9
12481	12482	12477	12485	9
12485	12477	12482	12486	9
12484	12481	12482	12486	9
12490	12489	6107	6097	9
12490	12489	6107	6109	9
12488	12487	7579	7569	9
12488	12487	7579	7581	9
13418	13417	13416	13427	9
13421	13417	13416	13427	9
13420	13415	13416	13427	9
13423	13415	13416	13427	9
13427	8644	8637	8638	9
13427	8644	8637	8636	9
13416	13417	13418	13425	9
13421	13417	13418	13425	9
13420	13419	13418	13425	9
13422	13419	13418	13425	9
13425	9666	9659	9660	9
13425	9666	9659	9658	9
13416	13427	8644	8637	9
13416	13427	8644	8646	9
13416	13417	13418	13419	9
13416	13415	13420	13419	9
13416	13415	13420	13424	9
13418	13425	9666	9659	9
13418	13425	9666	9668	9
13415	13416	13417	13418	9
13415	13420	13419	13418	9
13418	13419	13420	13424	9
13417	13416	13427	13428	9
13417	13416	13427	8644	9
13417	13416	13415	13420	9
13417	13416	13415	13423	9
13417	13418	13425	13426	9
13417	13418	13425	9666	9
13417	13418	13419	13420	9
13417	13418	13419	13422	9
13415	13416	13427	13428	9
13415	13416	13427	8644	9
13415	13416	13417	13421	9
13415	13420	13419	13422	9
13419	13418	13425	13426	9
13419	13418	13425	9666	9
13419	13418	13417	13421	9
13419	13420	13415	13423	9
13423	13415	13420	13424	9
13422	13419	13420	13424	9
13428	13427	8644	8637	9
13428	13427	8644	8646	9
13426	13425	9666	9659	9
13426	13425	9666	9668	9
618	617	616	627	9
621	617	616	627	9
620	615	616	627	9
623	615	616	627	9
599	598	604	627	9
601	598	604	627	9
616	617	618	625	9
621	617	618	625	9
620	619	618	625	9
622	619	618	625	9
625	4373	4366	4365	9
625	4373	4366	4367	9
598	604	627	616	9
605	604	627	616	9
616	617	618	619	9
616	615	620	619	9
616	615	620	624	9
618	625	4373	4366	9
618	625	4373	4375	9
615	616	617	618	9
615	620	619	618	9
618	619	620	624	9
617	616	627	628	9
604	627	616	617	9
617	616	615	620	9
617	616	615	623	9
617	618	625	626	9
617	618	625	4373	9
617	618	619	620	9
617	618	619	622	9
615	616	627	628	9
604	627	616	615	9
615	616	617	621	9
615	620	619	622	9
619	618	625	626	9
619	618	625	4373	9
619	618	617	621	9
619	620	615	623	9
623	615	620	624	9
622	619	620	624	9
598	604	627	628	9
605	604	627	628	9
626	625	4373	4366	9
626	625	4373	4375	9
13390	13389	13388	13399	9
13393	13389	13388	13399	9
13392	13387	13388	13399	9
13395	13387	13388	13399	9
13399	8411	8401	8400	9
13399	8411	8401	8404	9
13388	13389	13390	13397	9
13393	13389	13390	13397	9
13392	13391	13390	13397	9
13394	13391	13390	13397	9
13397	8483	8476	8475	9
13397	8483	8476	8477	9
13388	13399	8411	8401	9
13388	13399	8411	8413	9
13388	13389	13390	13391	9
13388	13387	13392	13391	9
13388	13387	13392	13396	9
13390	13397	8483	8476	9
13390	13397	8483	8485	9
13387	13388	13389	13390	9
13387	13392	13391	13390	9
13390	13391	13392	13396	9
13389	13388	13399	13400	9
13389	13388	13399	8411	9
13389	13388	13387	13392	9
13389	13388	13387	13395	9
13389	13390	13397	13398	9
13389	13390	13397	8483	9
13389	13390	13391	13392	9
13389	13390	13391	13394	9
13387	13388	13399	13400	9
13387	13388	13399	8411	9
13387	13388	13389	13393	9
13387	13392	13391	13394	9
13391	13390	13397	13398	9
13391	13390	13397	8483	9
13391	13390	13389	13393	9
13391	13392	13387	13395	9
13395	13387	13392	13396	9
13394	13391	13392	13396	9
13400	13399	8411	8401	9
13400	13399	8411	8413	9
13398	13397	8483	8476	9
13398	13397	8483	8485	9
12926	12927	12928	12935	9
12931	12927	12928	12935	9
12930	12929	12928	12935	9
12932	12929	12928	12935	9
12935	8015	8005	8008	9
12935	8015	8005	8004	9
12928	12927	12926	12937	9
12931	12927	12926	12937	9
12930	12925	12926	12937	9
12933	12925	12926	12937	9
12937	7344	7337	7338	9
12937	7344	7337	7336	9
12928	12935	8015	8005	9
12928	12935	8015	8017	9
12928	12927	12926	12925	9
12928	12929	12930	12925	9
12928	12929	12930	12934	9
12926	12937	7344	7337	9
12926	12937	7344	7346	9
12929	12928	12927	12926	9
12929	12930	12925	12926	9
12926	12925	12930	12934	9
12927	12928	12935	12936	9
12927	12928	12935	8015	9
12927	12928	12929	12930	9
12927	12928	12929	12932	9
12927	12926	12937	12938	9
12927	12926	12937	7344	9
12927	12926	12925	12930	9
12927	12926	12925	12933	9
12929	12928	12935	12936	9
12929	12928	12935	8015	9
12929	12928	12927	12931	9
12929	12930	12925	12933	9
12925	12926	12937	12938	9
12925	12926	12937	7344	9
12925	12926	12927	12931	9
12925	12930	12929	12932	9
12932	12929	12930	12934	9
12933	12925	12930	12934	9
12936	12935	8015	8005	9
12936	12935	8015	8017	9
12938	12937	7344	7337	9
12938	12937	7344	7346	9
2776	2777	2778	2785	9
2781	2777	2778	2785	9
2780	2779	2778	2785	9
2782	2779	2778	2785	9
2785	5245	5238	5237	9
2785	5245	5238	5239	9
2778	2777	2776	2787	9
2781	2777	2776	2787	9
2780	2775	2776	2787	9
2783	2775	2776	2787	9
2778	2785	5245	5238	9
2778	2785	5245	5247	9
2775	2776	2777	2778	9
2775	2780	2779	2778	9
2778	2779	2780	2784	9
2776	2777	2778	2779	9
2776	2775	2780	2779	9
2776	2775	2780	2784	9
2777	2778	2785	2786	9
2777	2778	2785	5245	9
2777	2778	2779	2780	9
2777	2778	2779	2782	9
2777	2776	2787	2788	9
2777	2776	2787	2789	9
2777	2776	2775	2780	9
2777	2776	2775	2783	9
2779	2778	2785	2786	9
2779	2778	2785	5245	9
2779	2778	2777	2781	9
2779	2780	2775	2783	9
2775	2776	2787	2788	9
2775	2776	2787	2789	9
2775	2776	2777	2781	9
2775	2780	2779	2782	9
2782	2779	2780	2784	9
2783	2775	2780	2784	9
2786	2785	5245	5238	9
2786	2785	5245	5247	9
1792	1791	1790	1801	9
1795	1791	1790	1801	9
1794	1789	1790	1801	9
1797	1789	1790	1801	9
1801	10394	10387	10388	9
1801	10394	10387	10386	9
1790	1791	1792	1799	9
1795	1791	1792	1799	9
1794	1793	1792	1799	9
1796	1793	1792	1799	9
1773	1772	1778	1799	9
1775	1772	1778	1799	9
1790	1801	10394	10387	9
1790	1801	10394	10396	9
1790	1791	1792	1793	9
1790	1789	1794	1793	9
1790	1789	1794	1798	9
1772	1778	1799	1792	9
1779	1778	1799	1792	9
1789	1790	1791	1792	9
1789	1794	1793	1792	9
1792	1793	1794	1798	9
1791	1790	1801	1802	9
1791	1790	1801	10394	9
1791	1790	1789	1794	9
1791	1790	1789	1797	9
1791	1792	1799	1800	9
1778	1799	1792	1791	9
1791	1792	1793	1794	9
1791	1792	1793	1796	9
1789	1790	1801	1802	9
1789	1790	1801	10394	9
1789	1790	1791	1795	9
1789	1794	1793	1796	9
1793	1792	1799	1800	9
1778	1799	1792	1793	9
1793	1792	1791	1795	9
1793	1794	1789	1797	9
1797	1789	1794	1798	9
1796	1793	1794	1798	9
1802	1801	10394	10387	9
1802	1801	10394	10396	9
1772	1778	1799	1800	9
1779	1778	1799	1800	9
11090	11089	11088	11099	9
11093	11089	11088	11099	9
11092	11087	11088	11099	9
11095	11087	11088	11099	9
2551	2552	2559	11099	9
2553	2552	2559	11099	9
11088	11089	11090	11097	9
11093	11089	11090	11097	9
11092	11091	11090	11097	9
11094	11091	11090	11097	9
11097	11107	11101	11102	9
11097	11107	11101	11104	9
2552	2559	11099	11088	9
2561	2559	11099	11088	9
11088	11089	11090	11091	9
11088	11087	11092	11091	9
11088	11087	11092	11096	9
11090	11097	11107	11101	9
11090	11097	11107	11108	9
11087	11088	11089	11090	9
11087	11092	11091	11090	9
11090	11091	11092	11096	9
11089	11088	11099	11100	9
2559	11099	11088	11089	9
11089	11088	11087	11092	9
11089	11088	11087	11095	9
11089	11090	11097	11098	9
11089	11090	11097	11107	9
11089	11090	11091	11092	9
11089	11090	11091	11094	9
11087	11088	11099	11100	9
2559	11099	11088	11087	9
11087	11088	11089	11093	9
11087	11092	11091	11094	9
11091	11090	11097	11098	9
11091	11090	11097	11107	9
11091	11090	11089	11093	9
11091	11092	11087	11095	9
11095	11087	11092	11096	9
11094	11091	11092	11096	9
2552	2559	11099	11100	9
2561	2559	11099	11100	9
11098	11097	11107	11101	9
11098	11097	11107	11108	9
880	879	878	889	9
883	879	878	889	9
882	877	878	889	9
885	877	878	889	9
889	9200	9190	9193	9
889	9200	9190	9189	9
878	879	880	887	9
883	879	880	887	9
882	881	880	887	9
884	881	880	887	9
898	893	891	887	9
894	893	891	887	9
878	889	9200	9190	9
878	889	9200	9202	9
878	879	880	881	9
878	877	882	881	9
878	877	882	886	9
893	891	887	880	9
892	891	887	880	9
877	878	879	880	9
877	882	881	880	9
880	881	882	886	9
879	878	889	890	9
879	878	889	9200	9
879	878	877	882	9
879	878	877	885	9
879	880	887	888	9
891	887	880	879	9
879	880	881	882	9
879	880	881	884	9
877	878	889	890	9
877	878	889	9200	9
877	878	879	883	9
877	882	881	884	9
881	880	887	888	9
891	887	880	881	9
881	880	879	883	9
881	882	877	885	9
885	877	882	886	9
884	881	882	886	9
890	889	9200	9190	9
890	889	9200	9202	9
893	891	887	888	9
892	891	887	888	9
3558	3557	3556	3567	9
3561	3557	3556	3567	9
3560	3555	3556	3567	9
3563	3555	3556	3567	9
3556	3557	3558	3565	9
3561	3557	3558	3565	9
3560	3559	3558	3565	9
3562	3559	3558	3565	9
3565	10030	10023	10022	9
3565	10030	10023	10024	9
3556	3557	3558	3559	9
3556	3555	3560	3559	9
3556	3555	3560	3564	9
3558	3565	10030	10023	9
3558	3565	10030	10032	9
3555	3556	3557	3558	9
3555	3560	3559	3558	9
3558	3559	3560	3564	9
3557	3556	3567	3568	9
3557	3556	3567	3569	9
3557	3556	3555	3560	9
3557	3556	3555	3563	9
3557	3558	3565	3566	9
3557	3558	3565	10030	9
3557	3558	3559	3560	9
3557	3558	3559	3562	9
3555	3556	3567	3568	9
3555	3556	3567	3569	9
3555	3556	3557	3561	9
3555	3560	3559	3562	9
3559	3558	3565	3566	9
3559	3558	3565	10030	9
3559	3558	3557	3561	9
3559	3560	3555	3563	9
3563	3555	3560	3564	9
3562	3559	3560	3564	9
3566	3565	10030	10023	9
3566	3565	10030	10032	9
12970	12969	12968	12979	9
12973	12969	12968	12979	9
12972	12967	12968	12979	9
12975	12967	12968	12979	9
12979	7404	7394	7397	9
12979	7404	7394	7393	9
12968	12969	12970	12977	9
12973	12969	12970	12977	9
12972	12971	12970	12977	9
12974	12971	12970	12977	9
12977	8858	8852	8853	9
12977	8858	8852	8855	9
12968	12979	7404	7394	9
12968	12979	7404	7406	9
12968	12969	12970	12971	9
12968	12967	12972	12971	9
12968	12967	12972	12976	9
12970	12977	8858	8852	9
12970	12977	8858	8859	9
12967	12968	12969	12970	9
12967	12972	12971	12970	9
12970	12971	12972	12976	9
12969	12968	12979	12980	9
12969	12968	12979	7404	9
12969	12968	12967	12972	9
12969	12968	12967	12975	9
12969	12970	12977	12978	9
12969	12970	12977	8858	9
12969	12970	12971	12972	9
12969	12970	12971	12974	9
12967	12968	12979	12980	9
12967	12968	12979	7404	9
12967	12968	12969	12973	9
12967	12972	12971	12974	9
12971	12970	12977	12978	9
12971	12970	12977	8858	9
12971	12970	12969	12973	9
12971	12972	12967	12975	9
12975	12967	12972	12976	9
12974	12971	12972	12976	9
12980	12979	7404	7394	9
12980	12979	7404	7406	9
12978	12977	8858	8852	9
12978	12977	8858	8859	9
2458	2457	2456	2467	9
2461	2457	2456	2467	9
2460	2455	2456	2467	9
2463	2455	2456	2467	9
2467	8455	8445	8444	9
2467	8455	8445	8448	9
2456	2457	2458	2465	9
2461	2457	2458	2465	9
2460	2459	2458	2465	9
2462	2459	2458	2465	9
2439	2438	2444	2465	9
2441	2438	2444	2465	9
2456	2467	8455	8445	9
2456	2467	8455	8457	9
2456	2457	2458	2459	9
2456	2455	2460	2459	9
2456	2455	2460	2464	9
2438	2444	2465	2458	9
2445	2444	2465	2458	9
2455	2456	2457	2458	9
2455	2460	2459	2458	9
2458	2459	2460	2464	9
2457	2456	2467	2468	9
2457	2456	2467	8455	9
2457	2456	2455	2460	9
2457	2456	2455	2463	9
2457	2458	2465	2466	9
2444	2465	2458	2457	9
2457	2458	2459	2460	9
2457	2458	2459	2462	9
2455	2456	2467	2468	9
2455	2456	2467	8455	9
2455	2456	2457	2461	9
2455	2460	2459	2462	9
2459	2458	2465	2466	9
2444	2465	2458	2459	9
2459	2458	2457	2461	9
2459	2460	2455	2463	9
2463	2455	2460	2464	9
2462	2459	2460	2464	9
2468	2467	8455	8445	9
2468	2467	8455	8457	9
2438	2444	2465	2466	9
2445	2444	2465	2466	9
9409	9408	9407	9418	9
9412	9408	9407	9418	9
9411	9406	9407	9418	9
9414	9406	9407	9418	9
9418	9426	9420	9423	9
9418	9426	9420	9421	9
9407	9408	9409	9416	9
9412	9408	9409	9416	9
9411	9410	9409	9416	9
9413	9410	9409	9416	9
9416	10833	10826	10827	9
9416	10833	10826	10825	9
9407	9418	9426	9420	9
9407	9418	9426	9427	9
9407	9408	9409	9410	9
9407	9406	9411	9410	9
9407	9406	9411	9415	9
9409	9416	10833	10826	9
9409	9416	10833	10835	9
9406	9407	9408	9409	9
9406	9411	9410	9409	9
9409	9410	9411	9415	9
9408	9407	9418	9419	9
9408	9407	9418	9426	9
9408	9407	9406	9411	9
9408	9407	9406	9414	9
9408	9409	9416	9417	9
9408	9409	9416	10833	9
9408	9409	9410	9411	9
9408	9409	9410	9413	9
9406	9407	9418	9419	9
9406	9407	9418	9426	9
9406	9407	9408	9412	9
9406	9411	9410	9413	9
9410	9409	9416	9417	9
9410	9409	9416	10833	9
9410	9409	9408	9412	9
9410	9411	9406	9414	9
9414	9406	9411	9415	9
9413	9410	9411	9415	9
9419	9418	9426	9420	9
9419	9418	9426	9427	9
9417	9416	10833	10826	9
9417	9416	10833	10835	9
12338	12339	12340	12347	9
12343	12339	12340	12347	9
12342	12341	12340	12347	9
12344	12341	12340	12347	9
12347	5843	5836	5835	9
12347	5843	5836	5837	9
12340	12339	12338	12349	9
12343	12339	12338	12349	9
12342	12337	12338	12349	9
12345	12337	12338	12349	9
12349	8761	8754	8753	9
12349	8761	8754	8755	9
12340	12347	5843	5836	9
12340	12347	5843	5845	9
12340	12339	12338	12337	9
12340	12341	12342	12337	9
12340	12341	12342	12346	9
12338	12349	8761	8754	9
12338	12349	8761	8763	9
12341	12340	12339	12338	9
12341	12342	12337	12338	9
12338	12337	12342	12346	9
12339	12340	12347	12348	9
12339	12340	12347	5843	9
12339	12340	12341	12342	9
12339	12340	12341	12344	9
12339	12338	12349	12350	9
12339	12338	12349	8761	9
12339	12338	12337	12342	9
12339	12338	12337	12345	9
12341	12340	12347	12348	9
12341	12340	12347	5843	9
12341	12340	12339	12343	9
12341	12342	12337	12345	9
12337	12338	12349	12350	9
12337	12338	12349	8761	9
12337	12338	12339	12343	9
12337	12342	12341	12344	9
12344	12341	12342	12346	9
12345	12337	12342	12346	9
12348	12347	5843	5836	9
12348	12347	5843	5845	9
12350	12349	8761	8754	9
12350	12349	8761	8763	9
8226	8225	8224	8235	9
8229	8225	8224	8235	9
8228	8223	8224	8235	9
8231	8223	8224	8235	9
8235	8243	8237	8238	9
8235	8243	8237	8240	9
8224	8225	8226	8233	9
8229	8225	8226	8233	9
8228	8227	8226	8233	9
8230	8227	8226	8233	9
8233	9944	9934	9937	9
8233	9944	9934	9933	9
8224	8235	8243	8237	9
8224	8235	8243	8244	9
8224	8225	8226	8227	9
8224	8223	8228	8227	9
8224	8223	8228	8232	9
8226	8233	9944	9934	9
8226	8233	9944	9946	9
8223	8224	8225	8226	9
8223	8228	8227	8226	9
8226	8227	8228	8232	9
8225	8224	8235	8236	9
8225	8224	8235	8243	9
8225	8224	8223	8228	9
8225	8224	8223	8231	9
8225	8226	8233	8234	9
8225	8226	8233	9944	9
8225	8226	8227	8228	9
8225	8226	8227	8230	9
8223	8224	8235	8236	9
8223	8224	8235	8243	9
8223	8224	8225	8229	9
8223	8228	8227	8230	9
8227	8226	8233	8234	9
8227	8226	8233	9944	9
8227	8226	8225	8229	9
8227	8228	8223	8231	9
8231	8223	8228	8232	9
8230	8227	8228	8232	9
8236	8235	8243	8237	9
8236	8235	8243	8244	9
8234	8233	9944	9934	9
8234	8233	9944	9946	9
13558	13557	13556	13567	9
13561	13557	13556	13567	9
13560	13555	13556	13567	9
13563	13555	13556	13567	9
13567	9475	9468	9467	9
13567	9475	9468	9469	9
13556	13557	13558	13565	9
13561	13557	13558	13565	9
13560	13559	13558	13565	9
13562	13559	13558	13565	9
13565	9142	9132	9131	9
13565	9142	9132	9135	9
13556	13567	9475	9468	9
13556	13567	9475	9477	9
13556	13557	13558	13559	9
13556	13555	13560	13559	9
13556	13555	13560	13564	9
13558	13565	9142	9132	9
13558	13565	9142	9144	9
13555	13556	13557	13558	9
13555	13560	13559	13558	9
13558	13559	13560	13564	9
13557	13556	13567	13568	9
13557	13556	13567	9475	9
13557	13556	13555	13560	9
13557	13556	13555	13563	9
13557	13558	13565	13566	9
13557	13558	13565	9142	9
13557	13558	13559	13560	9
13557	13558	13559	13562	9
13555	13556	13567	13568	9
13555	13556	13567	9475	9
13555	13556	13557	13561	9
13555	13560	13559	13562	9
13559	13558	13565	13566	9
13559	13558	13565	9142	9
13559	13558	13557	13561	9
13559	13560	13555	13563	9
13563	13555	13560	13564	9
13562	13559	13560	13564	9
13568	13567	9475	9468	9
13568	13567	9475	9477	9
13566	13565	9142	9132	9
13566	13565	9142	9144	9
9673	9672	9671	9682	9
9676	9672	9671	9682	9
9675	9670	9671	9682	9
9678	9670	9671	9682	9
9682	5057	5047	5046	9
9682	5057	5047	5050	9
9671	9672	9673	9680	9
9676	9672	9673	9680	9
9675	9674	9673	9680	9
9677	9674	9673	9680	9
9680	9696	9686	9685	9
9680	9696	9686	9689	9
9671	9682	5057	5047	9
9671	9682	5057	5059	9
9671	9672	9673	9674	9
9671	9670	9675	9674	9
9671	9670	9675	9679	9
9673	9680	9696	9686	9
9673	9680	9696	9698	9
9670	9671	9672	9673	9
9670	9675	9674	9673	9
9673	9674	9675	9679	9
9672	9671	9682	9683	9
9672	9671	9682	5057	9
9672	9671	9670	9675	9
9672	9671	9670	9678	9
9672	9673	9680	9681	9
9672	9673	9680	9696	9
9672	9673	9674	9675	9
9672	9673	9674	9677	9
9670	9671	9682	9683	9
9670	9671	9682	5057	9
9670	9671	9672	9676	9
9670	9675	9674	9677	9
9674	9673	9680	9681	9
9674	9673	9680	9696	9
9674	9673	9672	9676	9
9674	9675	9670	9678	9
9678	9670	9675	9679	9
9677	9674	9675	9679	9
9683	9682	5057	5047	9
9683	9682	5057	5059	9
9681	9680	9696	9686	9
9681	9680	9696	9698	9
4046	4045	4044	4055	9
4049	4045	4044	4055	9
4048	4043	4044	4055	9
4051	4043	4044	4055	9
4055	4063	4057	4058	9
4055	4063	4057	4060	9
4044	4045	4046	4053	9
4049	4045	4046	4053	9
4048	4047	4046	4053	9
4050	4047	4046	4053	9
4053	7637	7627	7630	9
4053	7637	7627	7626	9
4044	4055	4063	4057	9
4044	4055	4063	4064	9
4044	4045	4046	4047	9
4044	4043	4048	4047	9
4044	4043	4048	4052	9
4046	4053	7637	7627	9
4046	4053	7637	7639	9
4043	4044	4045	4046	9
4043	4048	4047	4046	9
4046	4047	4048	4052	9
4045	4044	4055	4056	9
4045	4044	4055	4063	9
4045	4044	4043	4048	9
4045	4044	4043	4051	9
4045	4046	4053	4054	9
4045	4046	4053	7637	9
4045	4046	4047	4048	9
4045	4046	4047	4050	9
4043	4044	4055	4056	9
4043	4044	4055	4063	9
4043	4044	4045	4049	9
4043	4048	4047	4050	9
4047	4046	4053	4054	9
4047	4046	4053	7637	9
4047	4046	4045	4049	9
4047	4048	4043	4051	9
4051	4043	4048	4052	9
4050	4047	4048	4052	9
4056	4055	4063	4057	9
4056	4055	4063	4064	9
4054	4053	7637	7627	9
4054	4053	7637	7639	9
8576	8577	8578	8585	9
8581	8577	8578	8585	9
8580	8579	8578	8585	9
8582	8579	8578	8585	9
2584	2583	2590	8585	9
2582	2583	2590	8585	9
8578	8577	8576	8587	9
8581	8577	8576	8587	9
8580	8575	8576	8587	9
8583	8575	8576	8587	9
8587	8595	8589	8590	9
8587	8595	8589	8592	9
2583	2590	8585	8578	9
2592	2590	8585	8578	9
8578	8577	8576	8575	9
8578	8579	8580	8575	9
8578	8579	8580	8584	9
8576	8587	8595	8589	9
8576	8587	8595	8596	9
8579	8578	8577	8576	9
8579	8580	8575	8576	9
8576	8575	8580	8584	9
8577	8578	8585	8586	9
2590	8585	8578	8577	9
8577	8578	8579	8580	9
8577	8578	8579	8582	9
8577	8576	8587	8588	9
8577	8576	8587	8595	9
8577	8576	8575	8580	9
8577	8576	8575	8583	9
8579	8578	8585	8586	9
2590	8585	8578	8579	9
8579	8578	8577	8581	9
8579	8580	8575	8583	9
8575	8576	8587	8588	9
8575	8576	8587	8595	9
8575	8576	8577	8581	9
8575	8580	8579	8582	9
8582	8579	8580	8584	9
8583	8575	8580	8584	9
2583	2590	8585	8586	9
2592	2590	8585	8586	9
8588	8587	8595	8589	9
8588	8587	8595	8596	9
7658	7657	7656	7667	9
7661	7657	7656	7667	9
7660	7655	7656	7667	9
7663	7655	7656	7667	9
7667	7675	7669	7672	9
7667	7675	7669	7670	9
7656	7657	7658	7665	9
7661	7657	7658	7665	9
7660	7659	7658	7665	9
7662	7659	7658	7665	9
7665	7942	7932	7935	9
7665	7942	7932	7931	9
7656	7667	7675	7669	9
7656	7667	7675	7676	9
7656	7657	7658	7659	9
7656	7655	7660	7659	9
7656	7655	7660	7664	9
7658	7665	7942	7932	9
7658	7665	7942	7944	9
7655	7656	7657	7658	9
7655	7660	7659	7658	9
7658	7659	7660	7664	9
7657	7656	7667	7668	9
7657	7656	7667	7675	9
7657	7656	7655	7660	9
7657	7656	7655	7663	9
7657	7658	7665	7666	9
7657	7658	7665	7942	9
7657	7658	7659	7660	9
7657	7658	7659	7662	9
7655	7656	7667	7668	9
7655	7656	7667	7675	9
7655	7656	7657	7661	9
7655	7660	7659	7662	9
7659	7658	7665	7666	9
7659	7658	7665	7942	9
7659	7658	7657	7661	9
7659	7660	7655	7663	9
7663	7655	7660	7664	9
7662	7659	7660	7664	9
7668	7667	7675	7669	9
7668	7667	7675	7676	9
7666	7665	7942	7932	9
7666	7665	7942	7944	9
11780	11779	11778	11789	9
11783	11779	11778	11789	9
11782	11777	11778	11789	9
11785	11777	11778	11789	9
11789	8965	8958	8957	9
11789	8965	8958	8959	9
11778	11779	11780	11787	9
11783	11779	11780	11787	9
11782	11781	11780	11787	9
11784	11781	11780	11787	9
11787	4868	4858	4861	9
11787	4868	4858	4857	9
11778	11789	8965	8958	9
11778	11789	8965	8967	9
11778	11779	11780	11781	9
11778	11777	11782	11781	9
11778	11777	11782	11786	9
11780	11787	4868	4858	9
11780	11787	4868	4870	9
11777	11778	11779	11780	9
11777	11782	11781	11780	9
11780	11781	11782	11786	9
11779	11778	11789	11790	9
11779	11778	11789	8965	9
11779	11778	11777	11782	9
11779	11778	11777	11785	9
11779	11780	11787	11788	9
11779	11780	11787	4868	9
11779	11780	11781	11782	9
11779	11780	11781	11784	9
11777	11778	11789	11790	9
11777	11778	11789	8965	9
11777	11778	11779	11783	9
11777	11782	11781	11784	9
11781	11780	11787	11788	9
11781	11780	11787	4868	9
11781	11780	11779	11783	9
11781	11782	11777	11785	9
11785	11777	11782	11786	9
11784	11781	11782	11786	9
11790	11789	8965	8958	9
11790	11789	8965	8967	9
11788	11787	4868	4858	9
11788	11787	4868	4870	9
11808	11807	11806	11817	9
11811	11807	11806	11817	9
11810	11805	11806	11817	9
11813	11805	11806	11817	9
11817	9344	9337	9338	9
11817	9344	9337	9336	9
11806	11807	11808	11815	9
11811	11807	11808	11815	9
11810	11809	11808	11815	9
11812	11809	11808	11815	9
11815	4896	4889	4890	9
11815	4896	4889	4888	9
11806	11817	9344	9337	9
11806	11817	9344	9346	9
11806	11807	11808	11809	9
11806	11805	11810	11809	9
11806	11805	11810	11814	9
11808	11815	4896	4889	9
11808	11815	4896	4898	9
11805	11806	11807	11808	9
11805	11810	11809	11808	9
11808	11809	11810	11814	9
11807	11806	11817	11818	9
11807	11806	11817	9344	9
11807	11806	11805	11810	9
11807	11806	11805	11813	9
11807	11808	11815	11816	9
11807	11808	11815	4896	9
11807	11808	11809	11810	9
11807	11808	11809	11812	9
11805	11806	11817	11818	9
11805	11806	11817	9344	9
11805	11806	11807	11811	9
11805	11810	11809	11812	9
11809	11808	11815	11816	9
11809	11808	11815	4896	9
11809	11808	11807	11811	9
11809	11810	11805	11813	9
11813	11805	11810	11814	9
11812	11809	11810	11814	9
11818	11817	9344	9337	9
11818	11817	9344	9346	9
11816	11815	4896	4889	9
11816	11815	4896	4898	9
3901	3900	3899	3910	9
3904	3900	3899	3910	9
3903	3898	3899	3910	9
3906	3898	3899	3910	9
3910	3918	3912	3915	9
3910	3918	3912	3913	9
3899	3900	3901	3908	9
3904	3900	3901	3908	9
3903	3902	3901	3908	9
3905	3902	3901	3908	9
3908	9258	9248	9251	9
3908	9258	9248	9247	9
3899	3910	3918	3912	9
3899	3910	3918	3919	9
3899	3900	3901	3902	9
3899	3898	3903	3902	9
3899	3898	3903	3907	9
3901	3908	9258	9248	9
3901	3908	9258	9260	9
3898	3899	3900	3901	9
3898	3903	3902	3901	9
3901	3902	3903	3907	9
3900	3899	3910	3911	9
3900	3899	3910	3918	9
3900	3899	3898	3903	9
3900	3899	3898	3906	9
3900	3901	3908	3909	9
3900	3901	3908	9258	9
3900	3901	3902	3903	9
3900	3901	3902	3905	9
3898	3899	3910	3911	9
3898	3899	3910	3918	9
3898	3899	3900	3904	9
3898	3903	3902	3905	9
3902	3901	3908	3909	9
3902	3901	3908	9258	9
3902	3901	3900	3904	9
3902	3903	3898	3906	9
3906	3898	3903	3907	9
3905	3902	3903	3907	9
3911	3910	3918	3912	9
3911	3910	3918	3919	9
3909	3908	9258	9248	9
3909	3908	9258	9260	9
9482	9481	9480	9491	9
9485	9481	9480	9491	9
9484	9479	9480	9491	9
9487	9479	9480	9491	9
9491	7956	7949	7950	9
9491	7956	7949	7948	9
9480	9481	9482	9489	9
9485	9481	9482	9489	9
9484	9483	9482	9489	9
9486	9483	9482	9489	9
9489	9499	9493	9494	9
9489	9499	9493	9496	9
9480	9491	7956	7949	9
9480	9491	7956	7958	9
9480	9481	9482	9483	9
9480	9479	9484	9483	9
9480	9479	9484	9488	9
9482	9489	9499	9493	9
9482	9489	9499	9500	9
9479	9480	9481	9482	9
9479	9484	9483	9482	9
9482	9483	9484	9488	9
9481	9480	9491	9492	9
9481	9480	9491	7956	9
9481	9480	9479	9484	9
9481	9480	9479	9487	9
9481	9482	9489	9490	9
9481	9482	9489	9499	9
9481	9482	9483	9484	9
9481	9482	9483	9486	9
9479	9480	9491	9492	9
9479	9480	9491	7956	9
9479	9480	9481	9485	9
9479	9484	9483	9486	9
9483	9482	9489	9490	9
9483	9482	9489	9499	9
9483	9482	9481	9485	9
9483	9484	9479	9487	9
9487	9479	9484	9488	9
9486	9483	9484	9488	9
9492	9491	7956	7949	9
9492	9491	7956	7958	9
9490	9489	9499	9493	9
9490	9489	9499	9500	9
4627	4626	4625	4636	9
4630	4626	4625	4636	9
4629	4624	4625	4636	9
4632	4624	4625	4636	9
4636	4644	4638	4639	9
4636	4644	4638	4641	9
4625	4626	4627	4634	9
4630	4626	4627	4634	9
4629	4628	4627	4634	9
4631	4628	4627	4634	9
4634	8219	8212	8213	9
4634	8219	8212	8211	9
4625	4636	4644	4638	9
4625	4636	4644	4645	9
4625	4626	4627	4628	9
4625	4624	4629	4628	9
4625	4624	4629	4633	9
4627	4634	8219	8212	9
4627	4634	8219	8221	9
4624	4625	4626	4627	9
4624	4629	4628	4627	9
4627	4628	4629	4633	9
4626	4625	4636	4637	9
4626	4625	4636	4644	9
4626	4625	4624	4629	9
4626	4625	4624	4632	9
4626	4627	4634	4635	9
4626	4627	4634	8219	9
4626	4627	4628	4629	9
4626	4627	4628	4631	9
4624	4625	4636	4637	9
4624	4625	4636	4644	9
4624	4625	4626	4630	9
4624	4629	4628	4631	9
4628	4627	4634	4635	9
4628	4627	4634	8219	9
4628	4627	4626	4630	9
4628	4629	4624	4632	9
4632	4624	4629	4633	9
4631	4628	4629	4633	9
4637	4636	4644	4638	9
4637	4636	4644	4645	9
4635	4634	8219	8212	9
4635	4634	8219	8221	9
12662	12661	12660	12671	9
12665	12661	12660	12671	9
12664	12659	12660	12671	9
12667	12659	12660	12671	9
12671	10863	10853	10856	9
12671	10863	10853	10852	9
12660	12661	12662	12669	9
12665	12661	12662	12669	9
12664	12663	12662	12669	9
12666	12663	12662	12669	9
12669	6486	6476	6475	9
12669	6486	6476	6479	9
12660	12671	10863	10853	9
12660	12671	10863	10865	9
12660	12661	12662	12663	9
12660	12659	12664	12663	9
12660	12659	12664	12668	9
12662	12669	6486	6476	9
12662	12669	6486	6488	9
12659	12660	12661	12662	9
12659	12664	12663	12662	9
12662	12663	12664	12668	9
12661	12660	12671	12672	9
12661	12660	12671	10863	9
12661	12660	12659	12664	9
12661	12660	12659	12667	9
12661	12662	12669	12670	9
12661	12662	12669	6486	9
12661	12662	12663	12664	9
12661	12662	12663	12666	9
12659	12660	12671	12672	9
12659	12660	12671	10863	9
12659	12660	12661	12665	9
12659	12664	12663	12666	9
12663	12662	12669	12670	9
12663	12662	12669	6486	9
12663	12662	12661	12665	9
12663	12664	12659	12667	9
12667	12659	12664	12668	9
12666	12663	12664	12668	9
12672	12671	10863	10853	9
12672	12671	10863	10865	9
12670	12669	6486	6476	9
12670	12669	6486	6488	9
12914	12913	12912	12923	9
12917	12913	12912	12923	9
12916	12911	12912	12923	9
12919	12911	12912	12923	9
12923	7286	7279	7278	9
12923	7286	7279	7280	9
12912	12913	12914	12921	9
12917	12913	12914	12921	9
12916	12915	12914	12921	9
12918	12915	12914	12921	9
12921	10527	10517	10516	9
12921	10527	10517	10520	9
12912	12923	7286	7279	9
12912	12923	7286	7288	9
12912	12913	12914	12915	9
12912	12911	12916	12915	9
12912	12911	12916	12920	9
12914	12921	10527	10517	9
12914	12921	10527	10529	9
12911	12912	12913	12914	9
12911	12916	12915	12914	9
12914	12915	12916	12920	9
12913	12912	12923	12924	9
12913	12912	12923	7286	9
12913	12912	12911	12916	9
12913	12912	12911	12919	9
12913	12914	12921	12922	9
12913	12914	12921	10527	9
12913	12914	12915	12916	9
12913	12914	12915	12918	9
12911	12912	12923	12924	9
12911	12912	12923	7286	9
12911	12912	12913	12917	9
12911	12916	12915	12918	9
12915	12914	12921	12922	9
12915	12914	12921	10527	9
12915	12914	12913	12917	9
12915	12916	12911	12919	9
12919	12911	12916	12920	9
12918	12915	12916	12920	9
12924	12923	7286	7279	9
12924	12923	7286	7288	9
12922	12921	10527	10517	9
12922	12921	10527	10529	9
711	710	709	720	9
714	710	709	720	9
713	708	709	720	9
716	708	709	720	9
694	691	697	720	9
692	691	697	720	9
709	710	711	718	9
714	710	711	718	9
713	712	711	718	9
715	712	711	718	9
718	6136	6126	6129	9
718	6136	6126	6125	9
691	697	720	709	9
698	697	720	709	9
709	710	711	712	9
709	708	713	712	9
709	708	713	717	9
711	718	6136	6126	9
711	718	6136	6138	9
708	709	710	711	9
708	713	712	711	9
711	712	713	717	9
710	709	720	721	9
697	720	709	710	9
710	709	708	713	9
710	709	708	716	9
710	711	718	719	9
710	711	718	6136	9
710	711	712	713	9
710	711	712	715	9
708	709	720	721	9
697	720	709	708	9
708	709	710	714	9
708	713	712	715	9
712	711	718	719	9
712	711	718	6136	9
712	711	710	714	9
712	713	708	716	9
716	708	713	717	9
715	712	713	717	9
691	697	720	721	9
698	697	720	721	9
719	718	6136	6126	9
719	718	6136	6138	9
12186	12185	12184	12195	9
12189	12185	12184	12195	9
12188	12183	12184	12195	9
12191	12183	12184	12195	9
2148	2147	2154	12195	9
2146	2147	2154	12195	9
12184	12185	12186	12193	9
12189	12185	12186	12193	9
12188	12187	12186	12193	9
12190	12187	12186	12193	9
12193	5624	5617	5616	9
12193	5624	5617	5618	9
2147	2154	12195	12184	9
2156	2154	12195	12184	9
12184	12185	12186	12187	9
12184	12183	12188	12187	9
12184	12183	12188	12192	9
12186	12193	5624	5617	9
12186	12193	5624	5626	9
12183	12184	12185	12186	9
12183	12188	12187	12186	9
12186	12187	12188	12192	9
12185	12184	12195	12196	9
2154	12195	12184	12185	9
12185	12184	12183	12188	9
12185	12184	12183	12191	9
12185	12186	12193	12194	9
12185	12186	12193	5624	9
12185	12186	12187	12188	9
12185	12186	12187	12190	9
12183	12184	12195	12196	9
2154	12195	12184	12183	9
12183	12184	12185	12189	9
12183	12188	12187	12190	9
12187	12186	12193	12194	9
12187	12186	12193	5624	9
12187	12186	12185	12189	9
12187	12188	12183	12191	9
12191	12183	12188	12192	9
12190	12187	12188	12192	9
2147	2154	12195	12196	9
2156	2154	12195	12196	9
12194	12193	5624	5617	9
12194	12193	5624	5626	9
13222	13221	13220	13231	9
13225	13221	13220	13231	9
13224	13219	13220	13231	9
13227	13219	13220	13231	9
13231	8190	8180	8183	9
13231	8190	8180	8179	9
13220	13221	13222	13229	9
13225	13221	13222	13229	9
13224	13223	13222	13229	9
13226	13223	13222	13229	9
2317	2318	2325	13229	9
2319	2318	2325	13229	9
13220	13231	8190	8180	9
13220	13231	8190	8192	9
13220	13221	13222	13223	9
13220	13219	13224	13223	9
13220	13219	13224	13228	9
2318	2325	13229	13222	9
2327	2325	13229	13222	9
13219	13220	13221	13222	9
13219	13224	13223	13222	9
13222	13223	13224	13228	9
13221	13220	13231	13232	9
13221	13220	13231	8190	9
13221	13220	13219	13224	9
13221	13220	13219	13227	9
13221	13222	13229	13230	9
2325	13229	13222	13221	9
13221	13222	13223	13224	9
13221	13222	13223	13226	9
13219	13220	13231	13232	9
13219	13220	13231	8190	9
13219	13220	13221	13225	9
13219	13224	13223	13226	9
13223	13222	13229	13230	9
2325	13229	13222	13223	9
13223	13222	13221	13225	9
13223	13224	13219	13227	9
13227	13219	13224	13228	9
13226	13223	13224	13228	9
13232	13231	8190	8180	9
13232	13231	8190	8192	9
2318	2325	13229	13230	9
2327	2325	13229	13230	9
7293	7292	7291	7302	9
7296	7292	7291	7302	9
7295	7290	7291	7302	9
7298	7290	7291	7302	9
7302	8493	8487	8488	9
7302	8493	8487	8490	9
7291	7292	7293	7300	9
7296	7292	7293	7300	9
7295	7294	7293	7300	9
7297	7294	7293	7300	9
7300	7310	7304	7307	9
7300	7310	7304	7305	9
7291	7302	8493	8487	9
7291	7302	8493	8494	9
7291	7292	7293	7294	9
7291	7290	7295	7294	9
7291	7290	7295	7299	9
7293	7300	7310	7304	9
7293	7300	7310	7311	9
7290	7291	7292	7293	9
7290	7295	7294	7293	9
7293	7294	7295	7299	9
7292	7291	7302	7303	9
7292	7291	7302	8493	9
7292	7291	7290	7295	9
7292	7291	7290	7298	9
7292	7293	7300	7301	9
7292	7293	7300	7310	9
7292	7293	7294	7295	9
7292	7293	7294	7297	9
7290	7291	7302	7303	9
7290	7291	7302	8493	9
7290	7291	7292	7296	9
7290	7295	7294	7297	9
7294	7293	7300	7301	9
7294	7293	7300	7310	9
7294	7293	7292	7296	9
7294	7295	7290	7298	9
7298	7290	7295	7299	9
7297	7294	7295	7299	9
7303	7302	8493	8487	9
7303	7302	8493	8494	9
7301	7300	7310	7304	9
7301	7300	7310	7311	9
13670	13669	13668	13679	9
13673	13669	13668	13679	9
13672	13667	13668	13679	9
13675	13667	13668	13679	9
13679	10147	10137	10140	9
13679	10147	10137	10136	9
13668	13669	13670	13677	9
13673	13669	13670	13677	9
13672	13671	13670	13677	9
13674	13671	13670	13677	9
2412	2411	2418	13677	9
2410	2411	2418	13677	9
13668	13679	10147	10137	9
13668	13679	10147	10149	9
13668	13669	13670	13671	9
13668	13667	13672	13671	9
13668	13667	13672	13676	9
2411	2418	13677	13670	9
2420	2418	13677	13670	9
13667	13668	13669	13670	9
13667	13672	13671	13670	9
13670	13671	13672	13676	9
13669	13668	13679	13680	9
13669	13668	13679	10147	9
13669	13668	13667	13672	9
13669	13668	13667	13675	9
13669	13670	13677	13678	9
2418	13677	13670	13669	9
13669	13670	13671	13672	9
13669	13670	13671	13674	9
13667	13668	13679	13680	9
13667	13668	13679	10147	9
13667	13668	13669	13673	9
13667	13672	13671	13674	9
13671	13670	13677	13678	9
2418	13677	13670	13671	9
13671	13670	13669	13673	9
13671	13672	13667	13675	9
13675	13667	13672	13676	9
13674	13671	13672	13676	9
13680	13679	10147	10137	9
13680	13679	10147	10149	9
2411	2418	13677	13678	9
2420	2418	13677	13678	9
1837	1836	1835	1846	9
1840	1836	1835	1846	9
1839	1834	1835	1846	9
1842	1834	1835	1846	9
1846	9199	9192	9191	9
1846	9199	9192	9193	9
1835	1836	1837	1844	9
1840	1836	1837	1844	9
1839	1838	1837	1844	9
1841	1838	1837	1844	9
1851	1850	1848	1844	9
1855	1850	1848	1844	9
1835	1846	9199	9192	9
1835	1846	9199	9201	9
1835	1836	1837	1838	9
1835	1834	1839	1838	9
1835	1834	1839	1843	9
1850	1848	1844	1837	9
1849	1848	1844	1837	9
1834	1835	1836	1837	9
1834	1839	1838	1837	9
1837	1838	1839	1843	9
1836	1835	1846	1847	9
1836	1835	1846	9199	9
1836	1835	1834	1839	9
1836	1835	1834	1842	9
1836	1837	1844	1845	9
1848	1844	1837	1836	9
1836	1837	1838	1839	9
1836	1837	1838	1841	9
1834	1835	1846	1847	9
1834	1835	1846	9199	9
1834	1835	1836	1840	9
1834	1839	1838	1841	9
1838	1837	1844	1845	9
1848	1844	1837	1838	9
1838	1837	1836	1840	9
1838	1839	1834	1842	9
1842	1834	1839	1843	9
1841	1838	1839	1843	9
1847	1846	9199	9192	9
1847	1846	9199	9201	9
1850	1848	1844	1845	9
1849	1848	1844	1845	9
12326	12325	12324	12335	9
12329	12325	12324	12335	9
12328	12323	12324	12335	9
12331	12323	12324	12335	9
12335	5814	5807	5806	9
12335	5814	5807	5808	9
12324	12325	12326	12333	9
12329	12325	12326	12333	9
12328	12327	12326	12333	9
12330	12327	12326	12333	9
1081	1082	1084	12333	9
1083	1082	1084	12333	9
12324	12335	5814	5807	9
12324	12335	5814	5816	9
12324	12325	12326	12327	9
12324	12323	12328	12327	9
12324	12323	12328	12332	9
1082	1084	12333	12326	9
1085	1084	12333	12326	9
12323	12324	12325	12326	9
12323	12328	12327	12326	9
12326	12327	12328	12332	9
12325	12324	12335	12336	9
12325	12324	12335	5814	9
12325	12324	12323	12328	9
12325	12324	12323	12331	9
12325	12326	12333	12334	9
1084	12333	12326	12325	9
12325	12326	12327	12328	9
12325	12326	12327	12330	9
12323	12324	12335	12336	9
12323	12324	12335	5814	9
12323	12324	12325	12329	9
12323	12328	12327	12330	9
12327	12326	12333	12334	9
1084	12333	12326	12327	9
12327	12326	12325	12329	9
12327	12328	12323	12331	9
12331	12323	12328	12332	9
12330	12327	12328	12332	9
12336	12335	5814	5807	9
12336	12335	5814	5816	9
1082	1084	12333	12334	9
1085	1084	12333	12334	9
1438	1437	1436	1447	9
1441	1437	1436	1447	9
1440	1435	1436	1447	9
1443	1435	1436	1447	9
1456	1451	1449	1447	9
1452	1451	1449	1447	9
1436	1437	1438	1445	9
1441	1437	1438	1445	9
1440	1439	1438	1445	9
1442	1439	1438	1445	9
1445	6990	6984	6987	9
1445	6990	6984	6985	9
1451	1449	1447	1436	9
1450	1449	1447	1436	9
1436	1437	1438	1439	9
1436	1435	1440	1439	9
1436	1435	1440	1444	9
1438	1445	6990	6984	9
1438	1445	6990	6991	9
1435	1436	1437	1438	9
1435	1440	1439	1438	9
1438	1439	1440	1444	9
1437	1436	1447	1448	9
1449	1447	1436	1437	9
1437	1436	1435	1440	9
1437	1436	1435	1443	9
1437	1438	1445	1446	9
1437	1438	1445	6990	9
1437	1438	1439	1440	9
1437	1438	1439	1442	9
1435	1436	1447	1448	9
1449	1447	1436	1435	9
1435	1436	1437	1441	9
1435	1440	1439	1442	9
1439	1438	1445	1446	9
1439	1438	1445	6990	9
1439	1438	1437	1441	9
1439	1440	1435	1443	9
1443	1435	1440	1444	9
1442	1439	1440	1444	9
1451	1449	1447	1448	9
1450	1449	1447	1448	9
1446	1445	6990	6984	9
1446	1445	6990	6991	9
5076	5077	5078	5085	9
5081	5077	5078	5085	9
5080	5079	5078	5085	9
5082	5079	5078	5085	9
5085	10483	10473	10476	9
5085	10483	10473	10472	9
5078	5077	5076	5087	9
5081	5077	5076	5087	9
5080	5075	5076	5087	9
5083	5075	5076	5087	9
5087	5095	5089	5090	9
5087	5095	5089	5092	9
5078	5085	10483	10473	9
5078	5085	10483	10485	9
5075	5076	5077	5078	9
5075	5080	5079	5078	9
5078	5079	5080	5084	9
5076	5087	5095	5089	9
5076	5087	5095	5096	9
5076	5077	5078	5079	9
5076	5075	5080	5079	9
5076	5075	5080	5084	9
5077	5078	5085	5086	9
5077	5078	5085	10483	9
5077	5078	5079	5080	9
5077	5078	5079	5082	9
5077	5076	5087	5088	9
5077	5076	5087	5095	9
5077	5076	5075	5080	9
5077	5076	5075	5083	9
5079	5078	5085	5086	9
5079	5078	5085	10483	9
5079	5078	5077	5081	9
5079	5080	5075	5083	9
5075	5076	5087	5088	9
5075	5076	5087	5095	9
5075	5076	5077	5081	9
5075	5080	5079	5082	9
5082	5079	5080	5084	9
5083	5075	5080	5084	9
5086	5085	10483	10473	9
5086	5085	10483	10485	9
5088	5087	5095	5089	9
5088	5087	5095	5096	9
86	85	84	95	9
89	85	84	95	9
88	83	84	95	9
91	83	84	95	9
73	72	74	95	9
71	72	74	95	9
84	85	86	93	9
89	85	86	93	9
88	87	86	93	9
90	87	86	93	9
93	7024	7017	7016	9
93	7024	7017	7018	9
72	74	95	84	9
75	74	95	84	9
84	85	86	87	9
84	83	88	87	9
84	83	88	92	9
86	93	7024	7017	9
86	93	7024	7026	9
83	84	85	86	9
83	88	87	86	9
86	87	88	92	9
85	84	95	96	9
74	95	84	85	9
85	84	83	88	9
85	84	83	91	9
85	86	93	94	9
85	86	93	7024	9
85	86	87	88	9
85	86	87	90	9
83	84	95	96	9
74	95	84	83	9
83	84	85	89	9
83	88	87	90	9
87	86	93	94	9
87	86	93	7024	9
87	86	85	89	9
87	88	83	91	9
91	83	88	92	9
90	87	88	92	9
72	74	95	96	9
75	74	95	96	9
94	93	7024	7017	9
94	93	7024	7026	9
8812	8811	8810	8821	9
8815	8811	8810	8821	9
8814	8809	8810	8821	9
8817	8809	8810	8821	9
8821	8829	8823	8824	9
8821	8829	8823	8826	9
8810	8811	8812	8819	9
8815	8811	8812	8819	9
8814	8813	8812	8819	9
8816	8813	8812	8819	9
8819	5377	5367	5370	9
8819	5377	5367	5366	9
8810	8821	8829	8823	9
8810	8821	8829	8830	9
8810	8811	8812	8813	9
8810	8809	8814	8813	9
8810	8809	8814	8818	9
8812	8819	5377	5367	9
8812	8819	5377	5379	9
8809	8810	8811	8812	9
8809	8814	8813	8812	9
8812	8813	8814	8818	9
8811	8810	8821	8822	9
8811	8810	8821	8829	9
8811	8810	8809	8814	9
8811	8810	8809	8817	9
8811	8812	8819	8820	9
8811	8812	8819	5377	9
8811	8812	8813	8814	9
8811	8812	8813	8816	9
8809	8810	8821	8822	9
8809	8810	8821	8829	9
8809	8810	8811	8815	9
8809	8814	8813	8816	9
8813	8812	8819	8820	9
8813	8812	8819	5377	9
8813	8812	8811	8815	9
8813	8814	8809	8817	9
8817	8809	8814	8818	9
8816	8813	8814	8818	9
8822	8821	8829	8823	9
8822	8821	8829	8830	9
8820	8819	5377	5367	9
8820	8819	5377	5379	9
1220	1221	1222	1229	9
1225	1221	1222	1229	9
1224	1223	1222	1229	9
1226	1223	1222	1229	9
1203	1202	1208	1229	9
1205	1202	1208	1229	9
1222	1221	1220	1231	9
1225	1221	1220	1231	9
1224	1219	1220	1231	9
1227	1219	1220	1231	9
1202	1208	1229	1222	9
1209	1208	1229	1222	9
1219	1220	1221	1222	9
1219	1224	1223	1222	9
1222	1223	1224	1228	9
1220	1221	1222	1223	9
1220	1219	1224	1223	9
1220	1219	1224	1228	9
1221	1222	1229	1230	9
1208	1229	1222	1221	9
1221	1222	1223	1224	9
1221	1222	1223	1226	9
1221	1220	1231	1233	9
1221	1220	1231	1232	9
1221	1220	1219	1224	9
1221	1220	1219	1227	9
1223	1222	1229	1230	9
1208	1229	1222	1223	9
1223	1222	1221	1225	9
1223	1224	1219	1227	9
1219	1220	1231	1233	9
1219	1220	1231	1232	9
1219	1220	1221	1225	9
1219	1224	1223	1226	9
1226	1223	1224	1228	9
1227	1219	1224	1228	9
1202	1208	1229	1230	9
1209	1208	1229	1230	9
13810	13809	13808	13819	9
13813	13809	13808	13819	9
13812	13807	13808	13819	9
13815	13807	13808	13819	9
1929	1930	1937	13819	9
1931	1930	1937	13819	9
13808	13809	13810	13817	9
13813	13809	13810	13817	9
13812	13811	13810	13817	9
13814	13811	13810	13817	9
725	726	733	13817	9
727	726	733	13817	9
1930	1937	13819	13808	9
1939	1937	13819	13808	9
13808	13809	13810	13811	9
13808	13807	13812	13811	9
13808	13807	13812	13816	9
726	733	13817	13810	9
735	733	13817	13810	9
13807	13808	13809	13810	9
13807	13812	13811	13810	9
13810	13811	13812	13816	9
13809	13808	13819	13820	9
1937	13819	13808	13809	9
13809	13808	13807	13812	9
13809	13808	13807	13815	9
13809	13810	13817	13818	9
733	13817	13810	13809	9
13809	13810	13811	13812	9
13809	13810	13811	13814	9
13807	13808	13819	13820	9
1937	13819	13808	13807	9
13807	13808	13809	13813	9
13807	13812	13811	13814	9
13811	13810	13817	13818	9
733	13817	13810	13811	9
13811	13810	13809	13813	9
13811	13812	13807	13815	9
13815	13807	13812	13816	9
13814	13811	13812	13816	9
1930	1937	13819	13820	9
1939	1937	13819	13820	9
726	733	13817	13818	9
735	733	13817	13818	9
1112	1111	1110	1121	9
1115	1111	1110	1121	9
1114	1109	1110	1121	9
1117	1109	1110	1121	9
1121	7039	7032	7031	9
1121	7039	7032	7033	9
1110	1111	1112	1119	9
1115	1111	1112	1119	9
1114	1113	1112	1119	9
1116	1113	1112	1119	9
1093	1092	1098	1119	9
1095	1092	1098	1119	9
1110	1121	7039	7032	9
1110	1121	7039	7041	9
1110	1111	1112	1113	9
1110	1109	1114	1113	9
1110	1109	1114	1118	9
1092	1098	1119	1112	9
1099	1098	1119	1112	9
1109	1110	1111	1112	9
1109	1114	1113	1112	9
1112	1113	1114	1118	9
1111	1110	1121	1122	9
1111	1110	1121	7039	9
1111	1110	1109	1114	9
1111	1110	1109	1117	9
1111	1112	1119	1120	9
1098	1119	1112	1111	9
1111	1112	1113	1114	9
1111	1112	1113	1116	9
1109	1110	1121	1122	9
1109	1110	1121	7039	9
1109	1110	1111	1115	9
1109	1114	1113	1116	9
1113	1112	1119	1120	9
1098	1119	1112	1113	9
1113	1112	1111	1115	9
1113	1114	1109	1117	9
1117	1109	1114	1118	9
1116	1113	1114	1118	9
1122	1121	7039	7032	9
1122	1121	7039	7041	9
1092	1098	1119	1120	9
1099	1098	1119	1120	9
11696	11695	11694	11705	9
11699	11695	11694	11705	9
11698	11693	11694	11705	9
11701	11693	11694	11705	9
11705	4737	4727	4726	9
11705	4737	4727	4730	9
11694	11695	11696	11703	9
11699	11695	11696	11703	9
11698	11697	11696	11703	9
11700	11697	11696	11703	9
2350	2349	2356	11703	9
2348	2349	2356	11703	9
11694	11705	4737	4727	9
11694	11705	4737	4739	9
11694	11695	11696	11697	9
11694	11693	11698	11697	9
11694	11693	11698	11702	9
2349	2356	11703	11696	9
2358	2356	11703	11696	9
11693	11694	11695	11696	9
11693	11698	11697	11696	9
11696	11697	11698	11702	9
11695	11694	11705	11706	9
11695	11694	11705	4737	9
11695	11694	11693	11698	9
11695	11694	11693	11701	9
11695	11696	11703	11704	9
2356	11703	11696	11695	9
11695	11696	11697	11698	9
11695	11696	11697	11700	9
11693	11694	11705	11706	9
11693	11694	11705	4737	9
11693	11694	11695	11699	9
11693	11698	11697	11700	9
11697	11696	11703	11704	9
2356	11703	11696	11697	9
11697	11696	11695	11699	9
11697	11698	11693	11701	9
11701	11693	11698	11702	9
11700	11697	11698	11702	9
11706	11705	4737	4727	9
11706	11705	4737	4739	9
2349	2356	11703	11704	9
2358	2356	11703	11704	9
9906	9905	9904	9915	9
9909	9905	9904	9915	9
9908	9903	9904	9915	9
9911	9903	9904	9915	9
9915	9923	9917	9918	9
9915	9923	9917	9920	9
9904	9905	9906	9913	9
9909	9905	9906	9913	9
9908	9907	9906	9913	9
9910	9907	9906	9913	9
9913	5946	5939	5940	9
9913	5946	5939	5938	9
9904	9915	9923	9917	9
9904	9915	9923	9924	9
9904	9905	9906	9907	9
9904	9903	9908	9907	9
9904	9903	9908	9912	9
9906	9913	5946	5939	9
9906	9913	5946	5948	9
9903	9904	9905	9906	9
9903	9908	9907	9906	9
9906	9907	9908	9912	9
9905	9904	9915	9916	9
9905	9904	9915	9923	9
9905	9904	9903	9908	9
9905	9904	9903	9911	9
9905	9906	9913	9914	9
9905	9906	9913	5946	9
9905	9906	9907	9908	9
9905	9906	9907	9910	9
9903	9904	9915	9916	9
9903	9904	9915	9923	9
9903	9904	9905	9909	9
9903	9908	9907	9910	9
9907	9906	9913	9914	9
9907	9906	9913	5946	9
9907	9906	9905	9909	9
9907	9908	9903	9911	9
9911	9903	9908	9912	9
9910	9907	9908	9912	9
9916	9915	9923	9917	9
9916	9915	9923	9924	9
9914	9913	5946	5939	9
9914	9913	5946	5948	9
11514	11513	11512	11523	9
11517	11513	11512	11523	9
11516	11511	11512	11523	9
11519	11511	11512	11523	9
11523	9929	9919	9918	9
11523	9929	9919	9922	9
11512	11513	11514	11521	9
11517	11513	11514	11521	9
11516	11515	11514	11521	9
11518	11515	11514	11521	9
11521	4389	4379	4378	9
11521	4389	4379	4382	9
11512	11523	9929	9919	9
11512	11523	9929	9931	9
11512	11513	11514	11515	9
11512	11511	11516	11515	9
11512	11511	11516	11520	9
11514	11521	4389	4379	9
11514	11521	4389	4391	9
11511	11512	11513	11514	9
11511	11516	11515	11514	9
11514	11515	11516	11520	9
11513	11512	11523	11524	9
11513	11512	11523	9929	9
11513	11512	11511	11516	9
11513	11512	11511	11519	9
11513	11514	11521	11522	9
11513	11514	11521	4389	9
11513	11514	11515	11516	9
11513	11514	11515	11518	9
11511	11512	11523	11524	9
11511	11512	11523	9929	9
11511	11512	11513	11517	9
11511	11516	11515	11518	9
11515	11514	11521	11522	9
11515	11514	11521	4389	9
11515	11514	11513	11517	9
11515	11516	11511	11519	9
11519	11511	11516	11520	9
11518	11515	11516	11520	9
11524	11523	9929	9919	9
11524	11523	9929	9931	9
11522	11521	4389	4379	9
11522	11521	4389	4391	9
402	401	400	411	9
405	401	400	411	9
404	399	400	411	9
407	399	400	411	9
411	11083	11076	11077	9
411	11083	11076	11075	9
400	401	402	409	9
405	401	402	409	9
404	403	402	409	9
406	403	402	409	9
385	382	388	409	9
383	382	388	409	9
400	411	11083	11076	9
400	411	11083	11085	9
400	401	402	403	9
400	399	404	403	9
400	399	404	408	9
382	388	409	402	9
389	388	409	402	9
399	400	401	402	9
399	404	403	402	9
402	403	404	408	9
401	400	411	412	9
401	400	411	11083	9
401	400	399	404	9
401	400	399	407	9
401	402	409	410	9
388	409	402	401	9
401	402	403	404	9
401	402	403	406	9
399	400	411	412	9
399	400	411	11083	9
399	400	401	405	9
399	404	403	406	9
403	402	409	410	9
388	409	402	403	9
403	402	401	405	9
403	404	399	407	9
407	399	404	408	9
406	403	404	408	9
412	411	11083	11076	9
412	411	11083	11085	9
382	388	409	410	9
389	388	409	410	9
462	463	464	471	9
467	463	464	471	9
466	465	464	471	9
468	465	464	471	9
445	444	450	471	9
447	444	450	471	9
464	463	462	473	9
467	463	462	473	9
466	461	462	473	9
469	461	462	473	9
473	4418	4408	4407	9
473	4418	4408	4411	9
444	450	471	464	9
451	450	471	464	9
461	462	463	464	9
461	466	465	464	9
464	465	466	470	9
462	473	4418	4408	9
462	473	4418	4420	9
462	463	464	465	9
462	461	466	465	9
462	461	466	470	9
463	464	471	472	9
450	471	464	463	9
463	464	465	466	9
463	464	465	468	9
463	462	473	474	9
463	462	473	4418	9
463	462	461	466	9
463	462	461	469	9
465	464	471	472	9
450	471	464	465	9
465	464	463	467	9
465	466	461	469	9
461	462	473	474	9
461	462	473	4418	9
461	462	463	467	9
461	466	465	468	9
468	465	466	470	9
469	461	466	470	9
444	450	471	472	9
451	450	471	472	9
474	473	4418	4408	9
474	473	4418	4420	9
1485	1484	1483	1494	9
1488	1484	1483	1494	9
1487	1482	1483	1494	9
1490	1482	1483	1494	9
1494	10404	10398	10401	9
1494	10404	10398	10399	9
1483	1484	1485	1492	9
1488	1484	1485	1492	9
1487	1486	1485	1492	9
1489	1486	1485	1492	9
1466	1465	1471	1492	9
1468	1465	1471	1492	9
1483	1494	10404	10398	9
1483	1494	10404	10405	9
1483	1484	1485	1486	9
1483	1482	1487	1486	9
1483	1482	1487	1491	9
1465	1471	1492	1485	9
1472	1471	1492	1485	9
1482	1483	1484	1485	9
1482	1487	1486	1485	9
1485	1486	1487	1491	9
1484	1483	1494	1495	9
1484	1483	1494	10404	9
1484	1483	1482	1487	9
1484	1483	1482	1490	9
1484	1485	1492	1493	9
1471	1492	1485	1484	9
1484	1485	1486	1487	9
1484	1485	1486	1489	9
1482	1483	1494	1495	9
1482	1483	1494	10404	9
1482	1483	1484	1488	9
1482	1487	1486	1489	9
1486	1485	1492	1493	9
1471	1492	1485	1486	9
1486	1485	1484	1488	9
1486	1487	1482	1490	9
1490	1482	1487	1491	9
1489	1486	1487	1491	9
1495	1494	10404	10398	9
1495	1494	10404	10405	9
1465	1471	1492	1493	9
1472	1471	1492	1493	9
835	834	833	844	9
838	834	833	844	9
837	832	833	844	9
840	832	833	844	9
816	815	821	844	9
818	815	821	844	9
833	834	835	842	9
838	834	835	842	9
837	836	835	842	9
839	836	835	842	9
570	571	578	842	9
572	571	578	842	9
815	821	844	833	9
822	821	844	833	9
833	834	835	836	9
833	832	837	836	9
833	832	837	841	9
571	578	842	835	9
580	578	842	835	9
832	833	834	835	9
832	837	836	835	9
835	836	837	841	9
834	833	844	845	9
821	844	833	834	9
834	833	832	837	9
834	833	832	840	9
834	835	842	843	9
578	842	835	834	9
834	835	836	837	9
834	835	836	839	9
832	833	844	845	9
821	844	833	832	9
832	833	834	838	9
832	837	836	839	9
836	835	842	843	9
578	842	835	836	9
836	835	834	838	9
836	837	832	840	9
840	832	837	841	9
839	836	837	841	9
815	821	844	845	9
822	821	844	845	9
571	578	842	843	9
580	578	842	843	9
2733	2732	2731	2742	9
2736	2732	2731	2742	9
2735	2730	2731	2742	9
2738	2730	2731	2742	9
2731	2732	2733	2740	9
2736	2732	2733	2740	9
2735	2734	2733	2740	9
2737	2734	2733	2740	9
2740	4998	4991	4992	9
2740	4998	4991	4990	9
2731	2732	2733	2734	9
2731	2730	2735	2734	9
2731	2730	2735	2739	9
2733	2740	4998	4991	9
2733	2740	4998	5000	9
2730	2731	2732	2733	9
2730	2735	2734	2733	9
2733	2734	2735	2739	9
2732	2731	2742	2743	9
2732	2731	2742	2744	9
2732	2731	2730	2735	9
2732	2731	2730	2738	9
2732	2733	2740	2741	9
2732	2733	2740	4998	9
2732	2733	2734	2735	9
2732	2733	2734	2737	9
2730	2731	2742	2743	9
2730	2731	2742	2744	9
2730	2731	2732	2736	9
2730	2735	2734	2737	9
2734	2733	2740	2741	9
2734	2733	2740	4998	9
2734	2733	2732	2736	9
2734	2735	2730	2738	9
2738	2730	2735	2739	9
2737	2734	2735	2739	9
2741	2740	4998	4991	9
2741	2740	4998	5000	9
118	117	116	127	9
121	117	116	127	9
120	115	116	127	9
123	115	116	127	9
127	11166	11160	11163	9
127	11166	11160	11161	9
116	117	118	125	9
121	117	118	125	9
120	119	118	125	9
122	119	118	125	9
103	104	106	125	9
105	104	106	125	9
116	127	11166	11160	9
116	127	11166	11167	9
116	117	118	119	9
116	115	120	119	9
116	115	120	124	9
104	106	125	118	9
107	106	125	118	9
115	116	117	118	9
115	120	119	118	9
118	119	120	124	9
117	116	127	128	9
117	116	127	11166	9
117	116	115	120	9
117	116	115	123	9
117	118	125	126	9
106	125	118	117	9
117	118	119	120	9
117	118	119	122	9
115	116	127	128	9
115	116	127	11166	9
115	116	117	121	9
115	120	119	122	9
119	118	125	126	9
106	125	118	119	9
119	118	117	121	9
119	120	115	123	9
123	115	120	124	9
122	119	120	124	9
128	127	11166	11160	9
128	127	11166	11167	9
104	106	125	126	9
107	106	125	126	9
3959	3958	3957	3968	9
3962	3958	3957	3968	9
3961	3956	3957	3968	9
3964	3956	3957	3968	9
3968	7985	7978	7979	9
3968	7985	7978	7977	9
3957	3958	3959	3966	9
3962	3958	3959	3966	9
3961	3960	3959	3966	9
3963	3960	3959	3966	9
3966	3976	3970	3971	9
3966	3976	3970	3973	9
3957	3968	7985	7978	9
3957	3968	7985	7987	9
3957	3958	3959	3960	9
3957	3956	3961	3960	9
3957	3956	3961	3965	9
3959	3966	3976	3970	9
3959	3966	3976	3977	9
3956	3957	3958	3959	9
3956	3961	3960	3959	9
3959	3960	3961	3965	9
3958	3957	3968	3969	9
3958	3957	3968	7985	9
3958	3957	3956	3961	9
3958	3957	3956	3964	9
3958	3959	3966	3967	9
3958	3959	3966	3976	9
3958	3959	3960	3961	9
3958	3959	3960	3963	9
3956	3957	3968	3969	9
3956	3957	3968	7985	9
3956	3957	3958	3962	9
3956	3961	3960	3963	9
3960	3959	3966	3967	9
3960	3959	3966	3976	9
3960	3959	3958	3962	9
3960	3961	3956	3964	9
3964	3956	3961	3965	9
3963	3960	3961	3965	9
3969	3968	7985	7978	9
3969	3968	7985	7987	9
3967	3966	3976	3970	9
3967	3966	3976	3977	9
12396	12395	12394	12405	9
12399	12395	12394	12405	9
12398	12393	12394	12405	9
12401	12393	12394	12405	9
2177	2178	2185	12405	9
2179	2178	2185	12405	9
12394	12395	12396	12403	9
12399	12395	12396	12403	9
12398	12397	12396	12403	9
12400	12397	12396	12403	9
12403	5947	5937	5936	9
12403	5947	5937	5940	9
2178	2185	12405	12394	9
2187	2185	12405	12394	9
12394	12395	12396	12397	9
12394	12393	12398	12397	9
12394	12393	12398	12402	9
12396	12403	5947	5937	9
12396	12403	5947	5949	9
12393	12394	12395	12396	9
12393	12398	12397	12396	9
12396	12397	12398	12402	9
12395	12394	12405	12406	9
2185	12405	12394	12395	9
12395	12394	12393	12398	9
12395	12394	12393	12401	9
12395	12396	12403	12404	9
12395	12396	12403	5947	9
12395	12396	12397	12398	9
12395	12396	12397	12400	9
12393	12394	12405	12406	9
2185	12405	12394	12393	9
12393	12394	12395	12399	9
12393	12398	12397	12400	9
12397	12396	12403	12404	9
12397	12396	12403	5947	9
12397	12396	12395	12399	9
12397	12398	12393	12401	9
12401	12393	12398	12402	9
12400	12397	12398	12402	9
2178	2185	12405	12406	9
2187	2185	12405	12406	9
12404	12403	5947	5937	9
12404	12403	5947	5949	9
11920	11919	11918	11929	9
11923	11919	11918	11929	9
11922	11917	11918	11929	9
11925	11917	11918	11929	9
11929	5130	5120	5119	9
11929	5130	5120	5123	9
11918	11919	11920	11927	9
11923	11919	11920	11927	9
11922	11921	11920	11927	9
11924	11921	11920	11927	9
1378	1377	1384	11927	9
1376	1377	1384	11927	9
11918	11929	5130	5120	9
11918	11929	5130	5132	9
11918	11919	11920	11921	9
11918	11917	11922	11921	9
11918	11917	11922	11926	9
1377	1384	11927	11920	9
1386	1384	11927	11920	9
11917	11918	11919	11920	9
11917	11922	11921	11920	9
11920	11921	11922	11926	9
11919	11918	11929	11930	9
11919	11918	11929	5130	9
11919	11918	11917	11922	9
11919	11918	11917	11925	9
11919	11920	11927	11928	9
1384	11927	11920	11919	9
11919	11920	11921	11922	9
11919	11920	11921	11924	9
11917	11918	11929	11930	9
11917	11918	11929	5130	9
11917	11918	11919	11923	9
11917	11922	11921	11924	9
11921	11920	11927	11928	9
1384	11927	11920	11921	9
11921	11920	11919	11923	9
11921	11922	11917	11925	9
11925	11917	11922	11926	9
11924	11921	11922	11926	9
11930	11929	5130	5120	9
11930	11929	5130	5132	9
1377	1384	11927	11928	9
1386	1384	11927	11928	9
10884	10883	10882	10893	9
10887	10883	10882	10893	9
10886	10881	10882	10893	9
10889	10881	10882	10893	9
10893	10901	10895	10896	9
10893	10901	10895	10898	9
10882	10883	10884	10891	9
10887	10883	10884	10891	9
10886	10885	10884	10891	9
10888	10885	10884	10891	9
10891	9054	9044	9043	9
10891	9054	9044	9047	9
10882	10893	10901	10895	9
10882	10893	10901	10902	9
10882	10883	10884	10885	9
10882	10881	10886	10885	9
10882	10881	10886	10890	9
10884	10891	9054	9044	9
10884	10891	9054	9056	9
10881	10882	10883	10884	9
10881	10886	10885	10884	9
10884	10885	10886	10890	9
10883	10882	10893	10894	9
10883	10882	10893	10901	9
10883	10882	10881	10886	9
10883	10882	10881	10889	9
10883	10884	10891	10892	9
10883	10884	10891	9054	9
10883	10884	10885	10886	9
10883	10884	10885	10888	9
10881	10882	10893	10894	9
10881	10882	10893	10901	9
10881	10882	10883	10887	9
10881	10886	10885	10888	9
10885	10884	10891	10892	9
10885	10884	10891	9054	9
10885	10884	10883	10887	9
10885	10886	10881	10889	9
10889	10881	10886	10890	9
10888	10885	10886	10890	9
10894	10893	10901	10895	9
10894	10893	10901	10902	9
10892	10891	9054	9044	9
10892	10891	9054	9056	9
3930	3929	3928	3939	9
3933	3929	3928	3939	9
3932	3927	3928	3939	9
3935	3927	3928	3939	9
3939	6878	6871	6870	9
3939	6878	6871	6872	9
3928	3929	3930	3937	9
3933	3929	3930	3937	9
3932	3931	3930	3937	9
3934	3931	3930	3937	9
3937	3947	3941	3944	9
3937	3947	3941	3942	9
3928	3939	6878	6871	9
3928	3939	6878	6880	9
3928	3929	3930	3931	9
3928	3927	3932	3931	9
3928	3927	3932	3936	9
3930	3937	3947	3941	9
3930	3937	3947	3948	9
3927	3928	3929	3930	9
3927	3932	3931	3930	9
3930	3931	3932	3936	9
3929	3928	3939	3940	9
3929	3928	3939	6878	9
3929	3928	3927	3932	9
3929	3928	3927	3935	9
3929	3930	3937	3938	9
3929	3930	3937	3947	9
3929	3930	3931	3932	9
3929	3930	3931	3934	9
3927	3928	3939	3940	9
3927	3928	3939	6878	9
3927	3928	3929	3933	9
3927	3932	3931	3934	9
3931	3930	3937	3938	9
3931	3930	3937	3947	9
3931	3930	3929	3933	9
3931	3932	3927	3935	9
3935	3927	3932	3936	9
3934	3931	3932	3936	9
3940	3939	6878	6871	9
3940	3939	6878	6880	9
3938	3937	3947	3941	9
3938	3937	3947	3948	9
13124	13123	13122	13133	9
13127	13123	13122	13133	9
13126	13121	13122	13133	9
13129	13121	13122	13133	9
13133	7883	7876	7877	9
13133	7883	7876	7875	9
13122	13123	13124	13131	9
13127	13123	13124	13131	9
13126	13125	13124	13131	9
13128	13125	13124	13131	9
1205	1206	1213	13131	9
1207	1206	1213	13131	9
13122	13133	7883	7876	9
13122	13133	7883	7885	9
13122	13123	13124	13125	9
13122	13121	13126	13125	9
13122	13121	13126	13130	9
1206	1213	13131	13124	9
1215	1213	13131	13124	9
13121	13122	13123	13124	9
13121	13126	13125	13124	9
13124	13125	13126	13130	9
13123	13122	13133	13134	9
13123	13122	13133	7883	9
13123	13122	13121	13126	9
13123	13122	13121	13129	9
13123	13124	13131	13132	9
1213	13131	13124	13123	9
13123	13124	13125	13126	9
13123	13124	13125	13128	9
13121	13122	13133	13134	9
13121	13122	13133	7883	9
13121	13122	13123	13127	9
13121	13126	13125	13128	9
13125	13124	13131	13132	9
1213	13131	13124	13125	9
13125	13124	13123	13127	9
13125	13126	13121	13129	9
13129	13121	13126	13130	9
13128	13125	13126	13130	9
13134	13133	7883	7876	9
13134	13133	7883	7885	9
1206	1213	13131	13132	9
1215	1213	13131	13132	9
13152	13151	13150	13161	9
13155	13151	13150	13161	9
13154	13149	13150	13161	9
13157	13149	13150	13161	9
13161	7941	7934	7933	9
13161	7941	7934	7935	9
13150	13151	13152	13159	9
13155	13151	13152	13159	9
13154	13153	13152	13159	9
13156	13153	13152	13159	9
13159	9228	9221	9220	9
13159	9228	9221	9222	9
13150	13161	7941	7934	9
13150	13161	7941	7943	9
13150	13151	13152	13153	9
13150	13149	13154	13153	9
13150	13149	13154	13158	9
13152	13159	9228	9221	9
13152	13159	9228	9230	9
13149	13150	13151	13152	9
13149	13154	13153	13152	9
13152	13153	13154	13158	9
13151	13150	13161	13162	9
13151	13150	13161	7941	9
13151	13150	13149	13154	9
13151	13150	13149	13157	9
13151	13152	13159	13160	9
13151	13152	13159	9228	9
13151	13152	13153	13154	9
13151	13152	13153	13156	9
13149	13150	13161	13162	9
13149	13150	13161	7941	9
13149	13150	13151	13155	9
13149	13154	13153	13156	9
13153	13152	13159	13160	9
13153	13152	13159	9228	9
13153	13152	13151	13155	9
13153	13154	13149	13157	9
13157	13149	13154	13158	9
13156	13153	13154	13158	9
13162	13161	7941	7934	9
13162	13161	7941	7943	9
13160	13159	9228	9221	9
13160	13159	9228	9230	9
3363	3362	3361	3372	9
3366	3362	3361	3372	9
3365	3360	3361	3372	9
3368	3360	3361	3372	9
3361	3362	3363	3370	9
3366	3362	3363	3370	9
3365	3364	3363	3370	9
3367	3364	3363	3370	9
3370	9084	9074	9073	9
3370	9084	9074	9077	9
3361	3362	3363	3364	9
3361	3360	3365	3364	9
3361	3360	3365	3369	9
3363	3370	9084	9074	9
3363	3370	9084	9086	9
3360	3361	3362	3363	9
3360	3365	3364	3363	9
3363	3364	3365	3369	9
3362	3361	3372	3373	9
3362	3361	3372	3374	9
3362	3361	3360	3365	9
3362	3361	3360	3368	9
3362	3363	3370	3371	9
3362	3363	3370	9084	9
3362	3363	3364	3365	9
3362	3363	3364	3367	9
3360	3361	3372	3373	9
3360	3361	3372	3374	9
3360	3361	3362	3366	9
3360	3365	3364	3367	9
3364	3363	3370	3371	9
3364	3363	3370	9084	9
3364	3363	3362	3366	9
3364	3365	3360	3368	9
3368	3360	3365	3369	9
3367	3364	3365	3369	9
3371	3370	9084	9074	9
3371	3370	9084	9086	9
4772	4771	4770	4781	9
4775	4771	4770	4781	9
4774	4769	4770	4781	9
4777	4769	4770	4781	9
4781	9564	9554	9553	9
4781	9564	9554	9557	9
4770	4771	4772	4779	9
4775	4771	4772	4779	9
4774	4773	4772	4779	9
4776	4773	4772	4779	9
4779	4789	4783	4786	9
4779	4789	4783	4784	9
4770	4781	9564	9554	9
4770	4781	9564	9566	9
4770	4771	4772	4773	9
4770	4769	4774	4773	9
4770	4769	4774	4778	9
4772	4779	4789	4783	9
4772	4779	4789	4790	9
4769	4770	4771	4772	9
4769	4774	4773	4772	9
4772	4773	4774	4778	9
4771	4770	4781	4782	9
4771	4770	4781	9564	9
4771	4770	4769	4774	9
4771	4770	4769	4777	9
4771	4772	4779	4780	9
4771	4772	4779	4789	9
4771	4772	4773	4774	9
4771	4772	4773	4776	9
4769	4770	4781	4782	9
4769	4770	4781	9564	9
4769	4770	4771	4775	9
4769	4774	4773	4776	9
4773	4772	4779	4780	9
4773	4772	4779	4789	9
4773	4772	4771	4775	9
4773	4774	4769	4777	9
4777	4769	4774	4778	9
4776	4773	4774	4778	9
4782	4781	9564	9554	9
4782	4781	9564	9566	9
4780	4779	4789	4783	9
4780	4779	4789	4790	9
11654	11653	11652	11663	9
11657	11653	11652	11663	9
11656	11651	11652	11663	9
11659	11651	11652	11663	9
11663	4679	4669	4672	9
11663	4679	4669	4668	9
11652	11653	11654	11661	9
11657	11653	11654	11661	9
11656	11655	11654	11661	9
11658	11655	11654	11661	9
11661	6281	6274	6273	9
11661	6281	6274	6275	9
11652	11663	4679	4669	9
11652	11663	4679	4681	9
11652	11653	11654	11655	9
11652	11651	11656	11655	9
11652	11651	11656	11660	9
11654	11661	6281	6274	9
11654	11661	6281	6283	9
11651	11652	11653	11654	9
11651	11656	11655	11654	9
11654	11655	11656	11660	9
11653	11652	11663	11664	9
11653	11652	11663	4679	9
11653	11652	11651	11656	9
11653	11652	11651	11659	9
11653	11654	11661	11662	9
11653	11654	11661	6281	9
11653	11654	11655	11656	9
11653	11654	11655	11658	9
11651	11652	11663	11664	9
11651	11652	11663	4679	9
11651	11652	11653	11657	9
11651	11656	11655	11658	9
11655	11654	11661	11662	9
11655	11654	11661	6281	9
11655	11654	11653	11657	9
11655	11656	11651	11659	9
11659	11651	11656	11660	9
11658	11655	11656	11660	9
11664	11663	4679	4669	9
11664	11663	4679	4681	9
11662	11661	6281	6274	9
11662	11661	6281	6283	9
2273	2272	2271	2282	9
2276	2272	2271	2282	9
2275	2270	2271	2282	9
2278	2270	2271	2282	9
2282	9646	9640	9643	9
2282	9646	9640	9641	9
2271	2272	2273	2280	9
2276	2272	2273	2280	9
2275	2274	2273	2280	9
2277	2274	2273	2280	9
2258	2257	2264	2280	9
2256	2257	2264	2280	9
2271	2282	9646	9640	9
2271	2282	9646	9647	9
2271	2272	2273	2274	9
2271	2270	2275	2274	9
2271	2270	2275	2279	9
2257	2264	2280	2273	9
2266	2264	2280	2273	9
2270	2271	2272	2273	9
2270	2275	2274	2273	9
2273	2274	2275	2279	9
2272	2271	2282	2283	9
2272	2271	2282	9646	9
2272	2271	2270	2275	9
2272	2271	2270	2278	9
2272	2273	2280	2281	9
2264	2280	2273	2272	9
2272	2273	2274	2275	9
2272	2273	2274	2277	9
2270	2271	2282	2283	9
2270	2271	2282	9646	9
2270	2271	2272	2276	9
2270	2275	2274	2277	9
2274	2273	2280	2281	9
2264	2280	2273	2274	9
2274	2273	2272	2276	9
2274	2275	2270	2278	9
2278	2270	2275	2279	9
2277	2274	2275	2279	9
2283	2282	9646	9640	9
2283	2282	9646	9647	9
2257	2264	2280	2281	9
2266	2264	2280	2281	9
1978	1977	1976	1987	9
1981	1977	1976	1987	9
1980	1975	1976	1987	9
1983	1975	1976	1987	9
1959	1958	1964	1987	9
1961	1958	1964	1987	9
1976	1977	1978	1985	9
1981	1977	1978	1985	9
1980	1979	1978	1985	9
1982	1979	1978	1985	9
1985	4999	4989	4988	9
1985	4999	4989	4992	9
1958	1964	1987	1976	9
1965	1964	1987	1976	9
1976	1977	1978	1979	9
1976	1975	1980	1979	9
1976	1975	1980	1984	9
1978	1985	4999	4989	9
1978	1985	4999	5001	9
1975	1976	1977	1978	9
1975	1980	1979	1978	9
1978	1979	1980	1984	9
1977	1976	1987	1988	9
1964	1987	1976	1977	9
1977	1976	1975	1980	9
1977	1976	1975	1983	9
1977	1978	1985	1986	9
1977	1978	1985	4999	9
1977	1978	1979	1980	9
1977	1978	1979	1982	9
1975	1976	1987	1988	9
1964	1987	1976	1975	9
1975	1976	1977	1981	9
1975	1980	1979	1982	9
1979	1978	1985	1986	9
1979	1978	1985	4999	9
1979	1978	1977	1981	9
1979	1980	1975	1983	9
1983	1975	1980	1984	9
1982	1979	1980	1984	9
1958	1964	1987	1988	9
1965	1964	1987	1988	9
1986	1985	4999	4989	9
1986	1985	4999	5001	9
11668	11667	11666	11677	9
11671	11667	11666	11677	9
11670	11665	11666	11677	9
11673	11665	11666	11677	9
11677	8747	8737	8740	9
11677	8747	8737	8736	9
11666	11667	11668	11675	9
11671	11667	11668	11675	9
11670	11669	11668	11675	9
11672	11669	11668	11675	9
11675	4707	4700	4701	9
11675	4707	4700	4699	9
11666	11677	8747	8737	9
11666	11677	8747	8749	9
11666	11667	11668	11669	9
11666	11665	11670	11669	9
11666	11665	11670	11674	9
11668	11675	4707	4700	9
11668	11675	4707	4709	9
11665	11666	11667	11668	9
11665	11670	11669	11668	9
11668	11669	11670	11674	9
11667	11666	11677	11678	9
11667	11666	11677	8747	9
11667	11666	11665	11670	9
11667	11666	11665	11673	9
11667	11668	11675	11676	9
11667	11668	11675	4707	9
11667	11668	11669	11670	9
11667	11668	11669	11672	9
11665	11666	11677	11678	9
11665	11666	11677	8747	9
11665	11666	11667	11671	9
11665	11670	11669	11672	9
11669	11668	11675	11676	9
11669	11668	11675	4707	9
11669	11668	11667	11671	9
11669	11670	11665	11673	9
11673	11665	11670	11674	9
11672	11669	11670	11674	9
11678	11677	8747	8737	9
11678	11677	8747	8749	9
11676	11675	4707	4700	9
11676	11675	4707	4709	9
13208	13207	13206	13217	9
13211	13207	13206	13217	9
13210	13205	13206	13217	9
13213	13205	13206	13217	9
13217	8160	8153	8152	9
13217	8160	8153	8154	9
13206	13207	13208	13215	9
13211	13207	13208	13215	9
13210	13209	13208	13215	9
13212	13209	13208	13215	9
13215	9563	9556	9557	9
13215	9563	9556	9555	9
13206	13217	8160	8153	9
13206	13217	8160	8162	9
13206	13207	13208	13209	9
13206	13205	13210	13209	9
13206	13205	13210	13214	9
13208	13215	9563	9556	9
13208	13215	9563	9565	9
13205	13206	13207	13208	9
13205	13210	13209	13208	9
13208	13209	13210	13214	9
13207	13206	13217	13218	9
13207	13206	13217	8160	9
13207	13206	13205	13210	9
13207	13206	13205	13213	9
13207	13208	13215	13216	9
13207	13208	13215	9563	9
13207	13208	13209	13210	9
13207	13208	13209	13212	9
13205	13206	13217	13218	9
13205	13206	13217	8160	9
13205	13206	13207	13211	9
13205	13210	13209	13212	9
13209	13208	13215	13216	9
13209	13208	13215	9563	9
13209	13208	13207	13211	9
13209	13210	13205	13213	9
13213	13205	13210	13214	9
13212	13209	13210	13214	9
13218	13217	8160	8153	9
13218	13217	8160	8162	9
13216	13215	9563	9556	9
13216	13215	9563	9565	9
5223	5222	5221	5232	9
5226	5222	5221	5232	9
5225	5220	5221	5232	9
5228	5220	5221	5232	9
5232	10118	10108	10107	9
5232	10118	10108	10111	9
5221	5222	5223	5230	9
5226	5222	5223	5230	9
5225	5224	5223	5230	9
5227	5224	5223	5230	9
5230	5240	5234	5237	9
5230	5240	5234	5235	9
5221	5232	10118	10108	9
5221	5232	10118	10120	9
5221	5222	5223	5224	9
5221	5220	5225	5224	9
5221	5220	5225	5229	9
5223	5230	5240	5234	9
5223	5230	5240	5241	9
5220	5221	5222	5223	9
5220	5225	5224	5223	9
5223	5224	5225	5229	9
5222	5221	5232	5233	9
5222	5221	5232	10118	9
5222	5221	5220	5225	9
5222	5221	5220	5228	9
5222	5223	5230	5231	9
5222	5223	5230	5240	9
5222	5223	5224	5225	9
5222	5223	5224	5227	9
5220	5221	5232	5233	9
5220	5221	5232	10118	9
5220	5221	5222	5226	9
5220	5225	5224	5227	9
5224	5223	5230	5231	9
5224	5223	5230	5240	9
5224	5223	5222	5226	9
5224	5225	5220	5228	9
5228	5220	5225	5229	9
5227	5224	5225	5229	9
5233	5232	10118	10108	9
5233	5232	10118	10120	9
5231	5230	5240	5234	9
5231	5230	5240	5241	9
12732	12731	12730	12741	9
12735	12731	12730	12741	9
12734	12729	12730	12741	9
12737	12729	12730	12741	9
12741	8498	8491	8492	9
12741	8498	8491	8490	9
12730	12731	12732	12739	9
12735	12731	12732	12739	9
12734	12733	12732	12739	9
12736	12733	12732	12739	9
12739	6646	6636	6635	9
12739	6646	6636	6639	9
12730	12741	8498	8491	9
12730	12741	8498	8500	9
12730	12731	12732	12733	9
12730	12729	12734	12733	9
12730	12729	12734	12738	9
12732	12739	6646	6636	9
12732	12739	6646	6648	9
12729	12730	12731	12732	9
12729	12734	12733	12732	9
12732	12733	12734	12738	9
12731	12730	12741	12742	9
12731	12730	12741	8498	9
12731	12730	12729	12734	9
12731	12730	12729	12737	9
12731	12732	12739	12740	9
12731	12732	12739	6646	9
12731	12732	12733	12734	9
12731	12732	12733	12736	9
12729	12730	12741	12742	9
12729	12730	12741	8498	9
12729	12730	12731	12735	9
12729	12734	12733	12736	9
12733	12732	12739	12740	9
12733	12732	12739	6646	9
12733	12732	12731	12735	9
12733	12734	12729	12737	9
12737	12729	12734	12738	9
12736	12733	12734	12738	9
12742	12741	8498	8491	9
12742	12741	8498	8500	9
12740	12739	6646	6636	9
12740	12739	6646	6648	9
11528	11527	11526	11537	9
11531	11527	11526	11537	9
11530	11525	11526	11537	9
11533	11525	11526	11537	9
11537	7098	7088	7087	9
11537	7098	7088	7091	9
11526	11527	11528	11535	9
11531	11527	11528	11535	9
11530	11529	11528	11535	9
11532	11529	11528	11535	9
11535	4417	4410	4411	9
11535	4417	4410	4409	9
11526	11537	7098	7088	9
11526	11537	7098	7100	9
11526	11527	11528	11529	9
11526	11525	11530	11529	9
11526	11525	11530	11534	9
11528	11535	4417	4410	9
11528	11535	4417	4419	9
11525	11526	11527	11528	9
11525	11530	11529	11528	9
11528	11529	11530	11534	9
11527	11526	11537	11538	9
11527	11526	11537	7098	9
11527	11526	11525	11530	9
11527	11526	11525	11533	9
11527	11528	11535	11536	9
11527	11528	11535	4417	9
11527	11528	11529	11530	9
11527	11528	11529	11532	9
11525	11526	11537	11538	9
11525	11526	11537	7098	9
11525	11526	11527	11531	9
11525	11530	11529	11532	9
11529	11528	11535	11536	9
11529	11528	11535	4417	9
11529	11528	11527	11531	9
11529	11530	11525	11533	9
11533	11525	11530	11534	9
11532	11529	11530	11534	9
11538	11537	7098	7088	9
11538	11537	7098	7100	9
11536	11535	4417	4410	9
11536	11535	4417	4419	9
1560	1559	1558	1569	9
1563	1559	1558	1569	9
1562	1557	1558	1569	9
1565	1557	1558	1569	9
1578	1577	1579	1569	9
1576	1577	1579	1569	9
1558	1559	1560	1567	9
1563	1559	1560	1567	9
1562	1561	1560	1567	9
1564	1561	1560	1567	9
1567	8220	8210	8209	9
1567	8220	8210	8213	9
1577	1579	1569	1558	9
1580	1579	1569	1558	9
1558	1559	1560	1561	9
1558	1557	1562	1561	9
1558	1557	1562	1566	9
1560	1567	8220	8210	9
1560	1567	8220	8222	9
1557	1558	1559	1560	9
1557	1562	1561	1560	9
1560	1561	1562	1566	9
1559	1558	1569	1570	9
1579	1569	1558	1559	9
1559	1558	1557	1562	9
1559	1558	1557	1565	9
1559	1560	1567	1568	9
1559	1560	1567	8220	9
1559	1560	1561	1562	9
1559	1560	1561	1564	9
1557	1558	1569	1570	9
1579	1569	1558	1557	9
1557	1558	1559	1563	9
1557	1562	1561	1564	9
1561	1560	1567	1568	9
1561	1560	1567	8220	9
1561	1560	1559	1563	9
1561	1562	1557	1565	9
1565	1557	1562	1566	9
1564	1561	1562	1566	9
1577	1579	1569	1570	9
1580	1579	1569	1570	9
1568	1567	8220	8210	9
1568	1567	8220	8222	9
6405	6404	6403	6414	9
6408	6404	6403	6414	9
6407	6402	6403	6414	9
6410	6402	6403	6414	9
6414	6422	6416	6419	9
6414	6422	6416	6417	9
6403	6404	6405	6412	9
6408	6404	6405	6412	9
6407	6406	6405	6412	9
6409	6406	6405	6412	9
6412	9621	9614	9615	9
6412	9621	9614	9613	9
6403	6414	6422	6416	9
6403	6414	6422	6423	9
6403	6404	6405	6406	9
6403	6402	6407	6406	9
6403	6402	6407	6411	9
6405	6412	9621	9614	9
6405	6412	9621	9623	9
6402	6403	6404	6405	9
6402	6407	6406	6405	9
6405	6406	6407	6411	9
6404	6403	6414	6415	9
6404	6403	6414	6422	9
6404	6403	6402	6407	9
6404	6403	6402	6410	9
6404	6405	6412	6413	9
6404	6405	6412	9621	9
6404	6405	6406	6407	9
6404	6405	6406	6409	9
6402	6403	6414	6415	9
6402	6403	6414	6422	9
6402	6403	6404	6408	9
6402	6407	6406	6409	9
6406	6405	6412	6413	9
6406	6405	6412	9621	9
6406	6405	6404	6408	9
6406	6407	6402	6410	9
6410	6402	6407	6411	9
6409	6406	6407	6411	9
6415	6414	6422	6416	9
6415	6414	6422	6423	9
6413	6412	9621	9614	9
6413	6412	9621	9623	9
12816	12815	12814	12825	9
12819	12815	12814	12825	9
12818	12813	12814	12825	9
12821	12813	12814	12825	9
12825	9432	9422	9425	9
12825	9432	9422	9421	9
12814	12815	12816	12823	9
12819	12815	12816	12823	9
12818	12817	12816	12823	9
12820	12817	12816	12823	9
12823	6981	6971	6970	9
12823	6981	6971	6974	9
12814	12825	9432	9422	9
12814	12825	9432	9434	9
12814	12815	12816	12817	9
12814	12813	12818	12817	9
12814	12813	12818	12822	9
12816	12823	6981	6971	9
12816	12823	6981	6983	9
12813	12814	12815	12816	9
12813	12818	12817	12816	9
12816	12817	12818	12822	9
12815	12814	12825	12826	9
12815	12814	12825	9432	9
12815	12814	12813	12818	9
12815	12814	12813	12821	9
12815	12816	12823	12824	9
12815	12816	12823	6981	9
12815	12816	12817	12818	9
12815	12816	12817	12820	9
12813	12814	12825	12826	9
12813	12814	12825	9432	9
12813	12814	12815	12819	9
12813	12818	12817	12820	9
12817	12816	12823	12824	9
12817	12816	12823	6981	9
12817	12816	12815	12819	9
12817	12818	12813	12821	9
12821	12813	12818	12822	9
12820	12817	12818	12822	9
12826	12825	9432	9422	9
12826	12825	9432	9434	9
12824	12823	6981	6971	9
12824	12823	6981	6983	9
13180	13179	13178	13189	9
13183	13179	13178	13189	9
13182	13177	13178	13189	9
13185	13177	13178	13189	9
13189	8307	8300	8301	9
13189	8307	8300	8299	9
13178	13179	13180	13187	9
13183	13179	13180	13187	9
13182	13181	13180	13187	9
13184	13181	13180	13187	9
13187	8030	8020	8023	9
13187	8030	8020	8019	9
13178	13189	8307	8300	9
13178	13189	8307	8309	9
13178	13179	13180	13181	9
13178	13177	13182	13181	9
13178	13177	13182	13186	9
13180	13187	8030	8020	9
13180	13187	8030	8032	9
13177	13178	13179	13180	9
13177	13182	13181	13180	9
13180	13181	13182	13186	9
13179	13178	13189	13190	9
13179	13178	13189	8307	9
13179	13178	13177	13182	9
13179	13178	13177	13185	9
13179	13180	13187	13188	9
13179	13180	13187	8030	9
13179	13180	13181	13182	9
13179	13180	13181	13184	9
13177	13178	13189	13190	9
13177	13178	13189	8307	9
13177	13178	13179	13183	9
13177	13182	13181	13184	9
13181	13180	13187	13188	9
13181	13180	13187	8030	9
13181	13180	13179	13183	9
13181	13182	13177	13185	9
13185	13177	13182	13186	9
13184	13181	13182	13186	9
13190	13189	8307	8300	9
13190	13189	8307	8309	9
13188	13187	8030	8020	9
13188	13187	8030	8032	9
13374	13375	13376	13383	9
13379	13375	13376	13383	9
13378	13377	13376	13383	9
13380	13377	13376	13383	9
13383	8410	8403	8404	9
13383	8410	8403	8402	9
13376	13375	13374	13385	9
13379	13375	13374	13385	9
13378	13373	13374	13385	9
13381	13373	13374	13385	9
13385	9009	9002	9003	9
13385	9009	9002	9001	9
13376	13383	8410	8403	9
13376	13383	8410	8412	9
13376	13375	13374	13373	9
13376	13377	13378	13373	9
13376	13377	13378	13382	9
13374	13385	9009	9002	9
13374	13385	9009	9011	9
13377	13376	13375	13374	9
13377	13378	13373	13374	9
13374	13373	13378	13382	9
13375	13376	13383	13384	9
13375	13376	13383	8410	9
13375	13376	13377	13378	9
13375	13376	13377	13380	9
13375	13374	13385	13386	9
13375	13374	13385	9009	9
13375	13374	13373	13378	9
13375	13374	13373	13381	9
13377	13376	13383	13384	9
13377	13376	13383	8410	9
13377	13376	13375	13379	9
13377	13378	13373	13381	9
13373	13374	13385	13386	9
13373	13374	13385	9009	9
13373	13374	13375	13379	9
13373	13378	13377	13380	9
13380	13377	13378	13382	9
13381	13373	13378	13382	9
13384	13383	8410	8403	9
13384	13383	8410	8412	9
13386	13385	9009	9002	9
13386	13385	9009	9011	9
12718	12717	12716	12727	9
12721	12717	12716	12727	9
12720	12715	12716	12727	9
12723	12715	12716	12727	9
12727	7316	7306	7309	9
12727	7316	7306	7305	9
12716	12717	12718	12725	9
12721	12717	12718	12725	9
12720	12719	12718	12725	9
12722	12719	12718	12725	9
12725	6645	6638	6639	9
12725	6645	6638	6637	9
12716	12727	7316	7306	9
12716	12727	7316	7318	9
12716	12717	12718	12719	9
12716	12715	12720	12719	9
12716	12715	12720	12724	9
12718	12725	6645	6638	9
12718	12725	6645	6647	9
12715	12716	12717	12718	9
12715	12720	12719	12718	9
12718	12719	12720	12724	9
12717	12716	12727	12728	9
12717	12716	12727	7316	9
12717	12716	12715	12720	9
12717	12716	12715	12723	9
12717	12718	12725	12726	9
12717	12718	12725	6645	9
12717	12718	12719	12720	9
12717	12718	12719	12722	9
12715	12716	12727	12728	9
12715	12716	12727	7316	9
12715	12716	12717	12721	9
12715	12720	12719	12722	9
12719	12718	12725	12726	9
12719	12718	12725	6645	9
12719	12718	12717	12721	9
12719	12720	12715	12723	9
12723	12715	12720	12724	9
12722	12719	12720	12724	9
12728	12727	7316	7306	9
12728	12727	7316	7318	9
12726	12725	6645	6638	9
12726	12725	6645	6647	9
1235	1236	1237	1244	9
1240	1236	1237	1244	9
1239	1238	1237	1244	9
1241	1238	1237	1244	9
1244	10454	10444	10447	9
1244	10454	10444	10443	9
1237	1236	1235	1246	9
1240	1236	1235	1246	9
1239	1234	1235	1246	9
1242	1234	1235	1246	9
1251	1250	1248	1246	9
1255	1250	1248	1246	9
1237	1244	10454	10444	9
1237	1244	10454	10456	9
1237	1236	1235	1234	9
1237	1238	1239	1234	9
1237	1238	1239	1243	9
1250	1248	1246	1235	9
1249	1248	1246	1235	9
1238	1237	1236	1235	9
1238	1239	1234	1235	9
1235	1234	1239	1243	9
1236	1237	1244	1245	9
1236	1237	1244	10454	9
1236	1237	1238	1239	9
1236	1237	1238	1241	9
1236	1235	1246	1247	9
1248	1246	1235	1236	9
1236	1235	1234	1239	9
1236	1235	1234	1242	9
1238	1237	1244	1245	9
1238	1237	1244	10454	9
1238	1237	1236	1240	9
1238	1239	1234	1242	9
1234	1235	1246	1247	9
1248	1246	1235	1234	9
1234	1235	1236	1240	9
1234	1239	1238	1241	9
1241	1238	1239	1243	9
1242	1234	1239	1243	9
1245	1244	10454	10444	9
1245	1244	10454	10456	9
1250	1248	1246	1247	9
1249	1248	1246	1247	9
7264	7263	7262	7273	9
7267	7263	7262	7273	9
7266	7261	7262	7273	9
7269	7261	7262	7273	9
7273	7281	7275	7278	9
7273	7281	7275	7276	9
7262	7263	7264	7271	9
7267	7263	7264	7271	9
7266	7265	7264	7271	9
7268	7265	7264	7271	9
7271	9661	9655	9656	9
7271	9661	9655	9658	9
7262	7273	7281	7275	9
7262	7273	7281	7282	9
7262	7263	7264	7265	9
7262	7261	7266	7265	9
7262	7261	7266	7270	9
7264	7271	9661	9655	9
7264	7271	9661	9662	9
7261	7262	7263	7264	9
7261	7266	7265	7264	9
7264	7265	7266	7270	9
7263	7262	7273	7274	9
7263	7262	7273	7281	9
7263	7262	7261	7266	9
7263	7262	7261	7269	9
7263	7264	7271	7272	9
7263	7264	7271	9661	9
7263	7264	7265	7266	9
7263	7264	7265	7268	9
7261	7262	7273	7274	9
7261	7262	7273	7281	9
7261	7262	7263	7267	9
7261	7266	7265	7268	9
7265	7264	7271	7272	9
7265	7264	7271	9661	9
7265	7264	7263	7267	9
7265	7266	7261	7269	9
7269	7261	7266	7270	9
7268	7265	7266	7270	9
7274	7273	7281	7275	9
7274	7273	7281	7282	9
7272	7271	9661	9655	9
7272	7271	9661	9662	9
1607	1606	1605	1616	9
1610	1606	1605	1616	9
1609	1604	1605	1616	9
1612	1604	1605	1616	9
1588	1587	1593	1616	9
1590	1587	1593	1616	9
1605	1606	1607	1614	9
1610	1606	1607	1614	9
1609	1608	1607	1614	9
1611	1608	1607	1614	9
1176	1175	1182	1614	9
1174	1175	1182	1614	9
1587	1593	1616	1605	9
1594	1593	1616	1605	9
1605	1606	1607	1608	9
1605	1604	1609	1608	9
1605	1604	1609	1613	9
1175	1182	1614	1607	9
1184	1182	1614	1607	9
1604	1605	1606	1607	9
1604	1609	1608	1607	9
1607	1608	1609	1613	9
1606	1605	1616	1617	9
1593	1616	1605	1606	9
1606	1605	1604	1609	9
1606	1605	1604	1612	9
1606	1607	1614	1615	9
1182	1614	1607	1606	9
1606	1607	1608	1609	9
1606	1607	1608	1611	9
1604	1605	1616	1617	9
1593	1616	1605	1604	9
1604	1605	1606	1610	9
1604	1609	1608	1611	9
1608	1607	1614	1615	9
1182	1614	1607	1608	9
1608	1607	1606	1610	9
1608	1609	1604	1612	9
1612	1604	1609	1613	9
1611	1608	1609	1613	9
1587	1593	1616	1617	9
1594	1593	1616	1617	9
1175	1182	1614	1615	9
1184	1182	1614	1615	9
509	508	507	518	9
512	508	507	518	9
511	506	507	518	9
514	506	507	518	9
518	5911	5905	5908	9
518	5911	5905	5906	9
507	508	509	516	9
512	508	509	516	9
511	510	509	516	9
513	510	509	516	9
527	522	520	516	9
523	522	520	516	9
507	518	5911	5905	9
507	518	5911	5912	9
507	508	509	510	9
507	506	511	510	9
507	506	511	515	9
522	520	516	509	9
521	520	516	509	9
506	507	508	509	9
506	511	510	509	9
509	510	511	515	9
508	507	518	519	9
508	507	518	5911	9
508	507	506	511	9
508	507	506	514	9
508	509	516	517	9
520	516	509	508	9
508	509	510	511	9
508	509	510	513	9
506	507	518	519	9
506	507	518	5911	9
506	507	508	512	9
506	511	510	513	9
510	509	516	517	9
520	516	509	510	9
510	509	508	512	9
510	511	506	514	9
514	506	511	515	9
513	510	511	515	9
519	518	5911	5905	9
519	518	5911	5912	9
522	520	516	517	9
521	520	516	517	9
13054	13053	13052	13063	9
13057	13053	13052	13063	9
13056	13051	13052	13063	9
13059	13051	13052	13063	9
13063	8907	8900	8901	9
13063	8907	8900	8899	9
13052	13053	13054	13061	9
13057	13053	13054	13061	9
13056	13055	13054	13061	9
13058	13055	13054	13061	9
13061	7636	7629	7628	9
13061	7636	7629	7630	9
13052	13063	8907	8900	9
13052	13063	8907	8909	9
13052	13053	13054	13055	9
13052	13051	13056	13055	9
13052	13051	13056	13060	9
13054	13061	7636	7629	9
13054	13061	7636	7638	9
13051	13052	13053	13054	9
13051	13056	13055	13054	9
13054	13055	13056	13060	9
13053	13052	13063	13064	9
13053	13052	13063	8907	9
13053	13052	13051	13056	9
13053	13052	13051	13059	9
13053	13054	13061	13062	9
13053	13054	13061	7636	9
13053	13054	13055	13056	9
13053	13054	13055	13058	9
13051	13052	13063	13064	9
13051	13052	13063	8907	9
13051	13052	13053	13057	9
13051	13056	13055	13058	9
13055	13054	13061	13062	9
13055	13054	13061	7636	9
13055	13054	13053	13057	9
13055	13056	13051	13059	9
13059	13051	13056	13060	9
13058	13055	13056	13060	9
13064	13063	8907	8900	9
13064	13063	8907	8909	9
13062	13061	7636	7629	9
13062	13061	7636	7638	9
8388	8387	8386	8397	9
8391	8387	8386	8397	9
8390	8385	8386	8397	9
8393	8385	8386	8397	9
8397	8405	8399	8400	9
8397	8405	8399	8402	9
8386	8387	8388	8395	9
8391	8387	8388	8395	9
8390	8389	8388	8395	9
8392	8389	8388	8395	9
8395	10176	10166	10165	9
8395	10176	10166	10169	9
8386	8397	8405	8399	9
8386	8397	8405	8406	9
8386	8387	8388	8389	9
8386	8385	8390	8389	9
8386	8385	8390	8394	9
8388	8395	10176	10166	9
8388	8395	10176	10178	9
8385	8386	8387	8388	9
8385	8390	8389	8388	9
8388	8389	8390	8394	9
8387	8386	8397	8398	9
8387	8386	8397	8405	9
8387	8386	8385	8390	9
8387	8386	8385	8393	9
8387	8388	8395	8396	9
8387	8388	8395	10176	9
8387	8388	8389	8390	9
8387	8388	8389	8392	9
8385	8386	8397	8398	9
8385	8386	8397	8405	9
8385	8386	8387	8391	9
8385	8390	8389	8392	9
8389	8388	8395	8396	9
8389	8388	8395	10176	9
8389	8388	8387	8391	9
8389	8390	8385	8393	9
8393	8385	8390	8394	9
8392	8389	8390	8394	9
8398	8397	8405	8399	9
8398	8397	8405	8406	9
8396	8395	10176	10166	9
8396	8395	10176	10178	9
4741	4742	4743	4750	9
4746	4742	4743	4750	9
4745	4744	4743	4750	9
4747	4744	4743	4750	9
4750	7126	7119	7118	9
4750	7126	7119	7120	9
4743	4742	4741	4752	9
4746	4742	4741	4752	9
4745	4740	4741	4752	9
4748	4740	4741	4752	9
4752	4760	4754	4757	9
4752	4760	4754	4755	9
4743	4750	7126	7119	9
4743	4750	7126	7128	9
4740	4741	4742	4743	9
4740	4745	4744	4743	9
4743	4744	4745	4749	9
4741	4752	4760	4754	9
4741	4752	4760	4761	9
4741	4742	4743	4744	9
4741	4740	4745	4744	9
4741	4740	4745	4749	9
4742	4743	4750	4751	9
4742	4743	4750	7126	9
4742	4743	4744	4745	9
4742	4743	4744	4747	9
4742	4741	4752	4753	9
4742	4741	4752	4760	9
4742	4741	4740	4745	9
4742	4741	4740	4748	9
4744	4743	4750	4751	9
4744	4743	4750	7126	9
4744	4743	4742	4746	9
4744	4745	4740	4748	9
4740	4741	4752	4753	9
4740	4741	4752	4760	9
4740	4741	4742	4746	9
4740	4745	4744	4747	9
4747	4744	4745	4749	9
4748	4740	4745	4749	9
4751	4750	7126	7119	9
4751	4750	7126	7128	9
4753	4752	4760	4754	9
4753	4752	4760	4761	9
3721	3722	3723	3730	9
3726	3722	3723	3730	9
3725	3724	3723	3730	9
3727	3724	3723	3730	9
3730	11156	11149	11150	9
3730	11156	11149	11148	9
3723	3722	3721	3732	9
3726	3722	3721	3732	9
3725	3720	3721	3732	9
3728	3720	3721	3732	9
3723	3730	11156	11149	9
3723	3730	11156	11158	9
3720	3721	3722	3723	9
3720	3725	3724	3723	9
3723	3724	3725	3729	9
3721	3722	3723	3724	9
3721	3720	3725	3724	9
3721	3720	3725	3729	9
3722	3723	3730	3731	9
3722	3723	3730	11156	9
3722	3723	3724	3725	9
3722	3723	3724	3727	9
3722	3721	3732	3733	9
3722	3721	3732	3734	9
3722	3721	3720	3725	9
3722	3721	3720	3728	9
3724	3723	3730	3731	9
3724	3723	3730	11156	9
3724	3723	3722	3726	9
3724	3725	3720	3728	9
3720	3721	3732	3733	9
3720	3721	3732	3734	9
3720	3721	3722	3726	9
3720	3725	3724	3727	9
3727	3724	3725	3729	9
3728	3720	3725	3729	9
3731	3730	11156	11149	9
3731	3730	11156	11158	9
12298	12297	12296	12307	9
12301	12297	12296	12307	9
12300	12295	12296	12307	9
12303	12295	12296	12307	9
12307	10141	10135	10136	9
12307	10141	10135	10138	9
12296	12297	12298	12305	9
12301	12297	12298	12305	9
12300	12299	12298	12305	9
12302	12299	12298	12305	9
12305	5800	5790	5793	9
12305	5800	5790	5789	9
12296	12307	10141	10135	9
12296	12307	10141	10142	9
12296	12297	12298	12299	9
12296	12295	12300	12299	9
12296	12295	12300	12304	9
12298	12305	5800	5790	9
12298	12305	5800	5802	9
12295	12296	12297	12298	9
12295	12300	12299	12298	9
12298	12299	12300	12304	9
12297	12296	12307	12308	9
12297	12296	12307	10141	9
12297	12296	12295	12300	9
12297	12296	12295	12303	9
12297	12298	12305	12306	9
12297	12298	12305	5800	9
12297	12298	12299	12300	9
12297	12298	12299	12302	9
12295	12296	12307	12308	9
12295	12296	12307	10141	9
12295	12296	12297	12301	9
12295	12300	12299	12302	9
12299	12298	12305	12306	9
12299	12298	12305	5800	9
12299	12298	12297	12301	9
12299	12300	12295	12303	9
12303	12295	12300	12304	9
12302	12299	12300	12304	9
12308	12307	10141	10135	9
12308	12307	10141	10142	9
12306	12305	5800	5790	9
12306	12305	5800	5802	9
5252	5251	5250	5261	9
5255	5251	5250	5261	9
5254	5249	5250	5261	9
5257	5249	5250	5261	9
5261	5269	5263	5264	9
5261	5269	5263	5266	9
5250	5251	5252	5259	9
5255	5251	5252	5259	9
5254	5253	5252	5259	9
5256	5253	5252	5259	9
5259	8258	8252	8253	9
5259	8258	8252	8255	9
5250	5261	5269	5263	9
5250	5261	5269	5270	9
5250	5251	5252	5253	9
5250	5249	5254	5253	9
5250	5249	5254	5258	9
5252	5259	8258	8252	9
5252	5259	8258	8259	9
5249	5250	5251	5252	9
5249	5254	5253	5252	9
5252	5253	5254	5258	9
5251	5250	5261	5262	9
5251	5250	5261	5269	9
5251	5250	5249	5254	9
5251	5250	5249	5257	9
5251	5252	5259	5260	9
5251	5252	5259	8258	9
5251	5252	5253	5254	9
5251	5252	5253	5256	9
5249	5250	5261	5262	9
5249	5250	5261	5269	9
5249	5250	5251	5255	9
5249	5254	5253	5256	9
5253	5252	5259	5260	9
5253	5252	5259	8258	9
5253	5252	5251	5255	9
5253	5254	5249	5257	9
5257	5249	5254	5258	9
5256	5253	5254	5258	9
5262	5261	5269	5263	9
5262	5261	5269	5270	9
5260	5259	8258	8252	9
5260	5259	8258	8259	9
7716	7715	7714	7725	9
7719	7715	7714	7725	9
7718	7713	7714	7725	9
7721	7713	7714	7725	9
7725	7733	7727	7728	9
7725	7733	7727	7730	9
7714	7715	7716	7723	9
7719	7715	7716	7723	9
7718	7717	7716	7723	9
7720	7717	7716	7723	9
7723	4446	4439	4440	9
7723	4446	4439	4438	9
7714	7725	7733	7727	9
7714	7725	7733	7734	9
7714	7715	7716	7717	9
7714	7713	7718	7717	9
7714	7713	7718	7722	9
7716	7723	4446	4439	9
7716	7723	4446	4448	9
7713	7714	7715	7716	9
7713	7718	7717	7716	9
7716	7717	7718	7722	9
7715	7714	7725	7726	9
7715	7714	7725	7733	9
7715	7714	7713	7718	9
7715	7714	7713	7721	9
7715	7716	7723	7724	9
7715	7716	7723	4446	9
7715	7716	7717	7718	9
7715	7716	7717	7720	9
7713	7714	7725	7726	9
7713	7714	7725	7733	9
7713	7714	7715	7719	9
7713	7718	7717	7720	9
7717	7716	7723	7724	9
7717	7716	7723	4446	9
7717	7716	7715	7719	9
7717	7718	7713	7721	9
7721	7713	7718	7722	9
7720	7717	7718	7722	9
7726	7725	7733	7727	9
7726	7725	7733	7734	9
7724	7723	4446	4439	9
7724	7723	4446	4448	9
9320	9321	9322	9329	9
9325	9321	9322	9329	9
9324	9323	9322	9329	9
9326	9323	9322	9329	9
447	448	455	9329	9
449	448	455	9329	9
9322	9321	9320	9331	9
9325	9321	9320	9331	9
9324	9319	9320	9331	9
9327	9319	9320	9331	9
9331	9339	9333	9334	9
9331	9339	9333	9336	9
448	455	9329	9322	9
457	455	9329	9322	9
9319	9320	9321	9322	9
9319	9324	9323	9322	9
9322	9323	9324	9328	9
9320	9331	9339	9333	9
9320	9331	9339	9340	9
9320	9321	9322	9323	9
9320	9319	9324	9323	9
9320	9319	9324	9328	9
9321	9322	9329	9330	9
455	9329	9322	9321	9
9321	9322	9323	9324	9
9321	9322	9323	9326	9
9321	9320	9331	9332	9
9321	9320	9331	9339	9
9321	9320	9319	9324	9
9321	9320	9319	9327	9
9323	9322	9329	9330	9
455	9329	9322	9323	9
9323	9322	9321	9325	9
9323	9324	9319	9327	9
9319	9320	9331	9332	9
9319	9320	9331	9339	9
9319	9320	9321	9325	9
9319	9324	9323	9326	9
9326	9323	9324	9328	9
9327	9319	9324	9328	9
448	455	9329	9330	9
457	455	9329	9330	9
9332	9331	9339	9333	9
9332	9331	9339	9340	9
2101	2100	2099	2110	9
2104	2100	2099	2110	9
2103	2098	2099	2110	9
2106	2098	2099	2110	9
2082	2081	2087	2110	9
2084	2081	2087	2110	9
2099	2100	2101	2108	9
2104	2100	2101	2108	9
2103	2102	2101	2108	9
2105	2102	2101	2108	9
2108	9063	9057	9060	9
2108	9063	9057	9058	9
2081	2087	2110	2099	9
2088	2087	2110	2099	9
2099	2100	2101	2102	9
2099	2098	2103	2102	9
2099	2098	2103	2107	9
2101	2108	9063	9057	9
2101	2108	9063	9064	9
2098	2099	2100	2101	9
2098	2103	2102	2101	9
2101	2102	2103	2107	9
2100	2099	2110	2111	9
2087	2110	2099	2100	9
2100	2099	2098	2103	9
2100	2099	2098	2106	9
2100	2101	2108	2109	9
2100	2101	2108	9063	9
2100	2101	2102	2103	9
2100	2101	2102	2105	9
2098	2099	2110	2111	9
2087	2110	2099	2098	9
2098	2099	2100	2104	9
2098	2103	2102	2105	9
2102	2101	2108	2109	9
2102	2101	2108	9063	9
2102	2101	2100	2104	9
2102	2103	2098	2106	9
2106	2098	2103	2107	9
2105	2102	2103	2107	9
2081	2087	2110	2111	9
2088	2087	2110	2111	9
2109	2108	9063	9057	9
2109	2108	9063	9064	9
10840	10839	10838	10849	9
10843	10839	10838	10849	9
10842	10837	10838	10849	9
10845	10837	10838	10849	9
10849	10857	10851	10854	9
10849	10857	10851	10852	9
10838	10839	10840	10847	9
10843	10839	10840	10847	9
10842	10841	10840	10847	9
10844	10841	10840	10847	9
10847	7681	7671	7674	9
10847	7681	7671	7670	9
10838	10849	10857	10851	9
10838	10849	10857	10858	9
10838	10839	10840	10841	9
10838	10837	10842	10841	9
10838	10837	10842	10846	9
10840	10847	7681	7671	9
10840	10847	7681	7683	9
10837	10838	10839	10840	9
10837	10842	10841	10840	9
10840	10841	10842	10846	9
10839	10838	10849	10850	9
10839	10838	10849	10857	9
10839	10838	10837	10842	9
10839	10838	10837	10845	9
10839	10840	10847	10848	9
10839	10840	10847	7681	9
10839	10840	10841	10842	9
10839	10840	10841	10844	9
10837	10838	10849	10850	9
10837	10838	10849	10857	9
10837	10838	10839	10843	9
10837	10842	10841	10844	9
10841	10840	10847	10848	9
10841	10840	10847	7681	9
10841	10840	10839	10843	9
10841	10842	10837	10845	9
10845	10837	10842	10846	9
10844	10841	10842	10846	9
10850	10849	10857	10851	9
10850	10849	10857	10858	9
10848	10847	7681	7671	9
10848	10847	7681	7683	9
13138	13137	13136	13147	9
13141	13137	13136	13147	9
13140	13135	13136	13147	9
13143	13135	13136	13147	9
2474	2473	2480	13147	9
2472	2473	2480	13147	9
13136	13137	13138	13145	9
13141	13137	13138	13145	9
13140	13139	13138	13145	9
13142	13139	13138	13145	9
13145	7912	7905	7906	9
13145	7912	7905	7904	9
2473	2480	13147	13136	9
2482	2480	13147	13136	9
13136	13137	13138	13139	9
13136	13135	13140	13139	9
13136	13135	13140	13144	9
13138	13145	7912	7905	9
13138	13145	7912	7914	9
13135	13136	13137	13138	9
13135	13140	13139	13138	9
13138	13139	13140	13144	9
13137	13136	13147	13148	9
2480	13147	13136	13137	9
13137	13136	13135	13140	9
13137	13136	13135	13143	9
13137	13138	13145	13146	9
13137	13138	13145	7912	9
13137	13138	13139	13140	9
13137	13138	13139	13142	9
13135	13136	13147	13148	9
2480	13147	13136	13135	9
13135	13136	13137	13141	9
13135	13140	13139	13142	9
13139	13138	13145	13146	9
13139	13138	13145	7912	9
13139	13138	13137	13141	9
13139	13140	13135	13143	9
13143	13135	13140	13144	9
13142	13139	13140	13144	9
2473	2480	13147	13148	9
2482	2480	13147	13148	9
13146	13145	7912	7905	9
13146	13145	7912	7914	9
13626	13627	13628	13635	9
13631	13627	13628	13635	9
13630	13629	13628	13635	9
13632	13629	13628	13635	9
13635	9900	9890	9893	9
13635	9900	9890	9889	9
13628	13627	13626	13637	9
13631	13627	13626	13637	9
13630	13625	13626	13637	9
13633	13625	13626	13637	9
972	973	980	13637	9
974	973	980	13637	9
13628	13635	9900	9890	9
13628	13635	9900	9902	9
13625	13626	13627	13628	9
13625	13630	13629	13628	9
13628	13629	13630	13634	9
973	980	13637	13626	9
982	980	13637	13626	9
13626	13627	13628	13629	9
13626	13625	13630	13629	9
13626	13625	13630	13634	9
13627	13628	13635	13636	9
13627	13628	13635	9900	9
13627	13628	13629	13630	9
13627	13628	13629	13632	9
13627	13626	13637	13638	9
980	13637	13626	13627	9
13627	13626	13625	13630	9
13627	13626	13625	13633	9
13629	13628	13635	13636	9
13629	13628	13635	9900	9
13629	13628	13627	13631	9
13629	13630	13625	13633	9
13625	13626	13637	13638	9
980	13637	13626	13625	9
13625	13626	13627	13631	9
13625	13630	13629	13632	9
13632	13629	13630	13634	9
13633	13625	13630	13634	9
13636	13635	9900	9890	9
13636	13635	9900	9902	9
973	980	13637	13638	9
982	980	13637	13638	9
11626	11625	11624	11635	9
11629	11625	11624	11635	9
11628	11623	11624	11635	9
11631	11623	11624	11635	9
11635	4649	4642	4641	9
11635	4649	4642	4643	9
11624	11625	11626	11633	9
11629	11625	11626	11633	9
11628	11627	11626	11633	9
11630	11627	11626	11633	9
11633	11010	11000	11003	9
11633	11010	11000	10999	9
11624	11635	4649	4642	9
11624	11635	4649	4651	9
11624	11625	11626	11627	9
11624	11623	11628	11627	9
11624	11623	11628	11632	9
11626	11633	11010	11000	9
11626	11633	11010	11012	9
11623	11624	11625	11626	9
11623	11628	11627	11626	9
11626	11627	11628	11632	9
11625	11624	11635	11636	9
11625	11624	11635	4649	9
11625	11624	11623	11628	9
11625	11624	11623	11631	9
11625	11626	11633	11634	9
11625	11626	11633	11010	9
11625	11626	11627	11628	9
11625	11626	11627	11630	9
11623	11624	11635	11636	9
11623	11624	11635	4649	9
11623	11624	11625	11629	9
11623	11628	11627	11630	9
11627	11626	11633	11634	9
11627	11626	11633	11010	9
11627	11626	11625	11629	9
11627	11628	11623	11631	9
11631	11623	11628	11632	9
11630	11627	11628	11632	9
11636	11635	4649	4642	9
11636	11635	4649	4651	9
11634	11633	11010	11000	9
11634	11633	11010	11012	9
2363	2364	2365	2372	9
2368	2364	2365	2372	9
2367	2366	2365	2372	9
2369	2366	2365	2372	9
2372	5027	5020	5021	9
2372	5027	5020	5019	9
2365	2364	2363	2374	9
2368	2364	2363	2374	9
2367	2362	2363	2374	9
2370	2362	2363	2374	9
2346	2345	2351	2374	9
2348	2345	2351	2374	9
2365	2372	5027	5020	9
2365	2372	5027	5029	9
2365	2364	2363	2362	9
2365	2366	2367	2362	9
2365	2366	2367	2371	9
2345	2351	2374	2363	9
2352	2351	2374	2363	9
2366	2365	2364	2363	9
2366	2367	2362	2363	9
2363	2362	2367	2371	9
2364	2365	2372	2373	9
2364	2365	2372	5027	9
2364	2365	2366	2367	9
2364	2365	2366	2369	9
2364	2363	2374	2375	9
2351	2374	2363	2364	9
2364	2363	2362	2367	9
2364	2363	2362	2370	9
2366	2365	2372	2373	9
2366	2365	2372	5027	9
2366	2365	2364	2368	9
2366	2367	2362	2370	9
2362	2363	2374	2375	9
2351	2374	2363	2362	9
2362	2363	2364	2368	9
2362	2367	2366	2369	9
2369	2366	2367	2371	9
2370	2362	2367	2371	9
2373	2372	5027	5020	9
2373	2372	5027	5029	9
2345	2351	2374	2375	9
2352	2351	2374	2375	9
3828	3827	3826	3837	9
3831	3827	3826	3837	9
3830	3825	3826	3837	9
3833	3825	3826	3837	9
3837	3845	3839	3840	9
3837	3845	3839	3842	9
3826	3827	3828	3835	9
3831	3827	3828	3835	9
3830	3829	3828	3835	9
3832	3829	3828	3835	9
3835	10755	10749	10752	9
3835	10755	10749	10750	9
3826	3837	3845	3839	9
3826	3837	3845	3846	9
3826	3827	3828	3829	9
3826	3825	3830	3829	9
3826	3825	3830	3834	9
3828	3835	10755	10749	9
3828	3835	10755	10756	9
3825	3826	3827	3828	9
3825	3830	3829	3828	9
3828	3829	3830	3834	9
3827	3826	3837	3838	9
3827	3826	3837	3845	9
3827	3826	3825	3830	9
3827	3826	3825	3833	9
3827	3828	3835	3836	9
3827	3828	3835	10755	9
3827	3828	3829	3830	9
3827	3828	3829	3832	9
3825	3826	3837	3838	9
3825	3826	3837	3845	9
3825	3826	3827	3831	9
3825	3830	3829	3832	9
3829	3828	3835	3836	9
3829	3828	3835	10755	9
3829	3828	3827	3831	9
3829	3830	3825	3833	9
3833	3825	3830	3834	9
3832	3829	3830	3834	9
3838	3837	3845	3839	9
3838	3837	3845	3846	9
3836	3835	10755	10749	9
3836	3835	10755	10756	9
13460	13459	13458	13469	9
13463	13459	13458	13469	9
13462	13457	13458	13469	9
13465	13457	13458	13469	9
13469	8834	8827	8828	9
13469	8834	8827	8826	9
13458	13459	13460	13467	9
13463	13459	13460	13467	9
13462	13461	13460	13467	9
13464	13461	13460	13467	9
1269	1268	1275	13467	9
1267	1268	1275	13467	9
13458	13469	8834	8827	9
13458	13469	8834	8836	9
13458	13459	13460	13461	9
13458	13457	13462	13461	9
13458	13457	13462	13466	9
1268	1275	13467	13460	9
1277	1275	13467	13460	9
13457	13458	13459	13460	9
13457	13462	13461	13460	9
13460	13461	13462	13466	9
13459	13458	13469	13470	9
13459	13458	13469	8834	9
13459	13458	13457	13462	9
13459	13458	13457	13465	9
13459	13460	13467	13468	9
1275	13467	13460	13459	9
13459	13460	13461	13462	9
13459	13460	13461	13464	9
13457	13458	13469	13470	9
13457	13458	13469	8834	9
13457	13458	13459	13463	9
13457	13462	13461	13464	9
13461	13460	13467	13468	9
1275	13467	13460	13461	9
13461	13460	13459	13463	9
13461	13462	13457	13465	9
13465	13457	13462	13466	9
13464	13461	13462	13466	9
13470	13469	8834	8827	9
13470	13469	8834	8836	9
1268	1275	13467	13468	9
1277	1275	13467	13468	9
11822	11821	11820	11831	9
11825	11821	11820	11831	9
11824	11819	11820	11831	9
11827	11819	11820	11831	9
11831	4926	4916	4919	9
11831	4926	4916	4915	9
11820	11821	11822	11829	9
11825	11821	11822	11829	9
11824	11823	11822	11829	9
11826	11823	11822	11829	9
11829	11054	11044	11047	9
11829	11054	11044	11043	9
11820	11831	4926	4916	9
11820	11831	4926	4928	9
11820	11821	11822	11823	9
11820	11819	11824	11823	9
11820	11819	11824	11828	9
11822	11829	11054	11044	9
11822	11829	11054	11056	9
11819	11820	11821	11822	9
11819	11824	11823	11822	9
11822	11823	11824	11828	9
11821	11820	11831	11832	9
11821	11820	11831	4926	9
11821	11820	11819	11824	9
11821	11820	11819	11827	9
11821	11822	11829	11830	9
11821	11822	11829	11054	9
11821	11822	11823	11824	9
11821	11822	11823	11826	9
11819	11820	11831	11832	9
11819	11820	11831	4926	9
11819	11820	11821	11825	9
11819	11824	11823	11826	9
11823	11822	11829	11830	9
11823	11822	11829	11054	9
11823	11822	11821	11825	9
11823	11824	11819	11827	9
11827	11819	11824	11828	9
11826	11823	11824	11828	9
11832	11831	4926	4916	9
11832	11831	4926	4928	9
11830	11829	11054	11044	9
11830	11829	11054	11056	9
11766	11765	11764	11775	9
11769	11765	11764	11775	9
11768	11763	11764	11775	9
11771	11763	11764	11775	9
11775	4853	4843	4846	9
11775	4853	4843	4842	9
11764	11765	11766	11773	9
11769	11765	11766	11773	9
11768	11767	11766	11773	9
11770	11767	11766	11773	9
11773	10277	10270	10269	9
11773	10277	10270	10271	9
11764	11775	4853	4843	9
11764	11775	4853	4855	9
11764	11765	11766	11767	9
11764	11763	11768	11767	9
11764	11763	11768	11772	9
11766	11773	10277	10270	9
11766	11773	10277	10279	9
11763	11764	11765	11766	9
11763	11768	11767	11766	9
11766	11767	11768	11772	9
11765	11764	11775	11776	9
11765	11764	11775	4853	9
11765	11764	11763	11768	9
11765	11764	11763	11771	9
11765	11766	11773	11774	9
11765	11766	11773	10277	9
11765	11766	11767	11768	9
11765	11766	11767	11770	9
11763	11764	11775	11776	9
11763	11764	11775	4853	9
11763	11764	11765	11769	9
11763	11768	11767	11770	9
11767	11766	11773	11774	9
11767	11766	11773	10277	9
11767	11766	11765	11769	9
11767	11768	11763	11771	9
11771	11763	11768	11772	9
11770	11767	11768	11772	9
11776	11775	4853	4843	9
11776	11775	4853	4855	9
11774	11773	10277	10270	9
11774	11773	10277	10279	9
958	957	956	967	9
961	957	956	967	9
960	955	956	967	9
963	955	956	967	9
939	938	944	967	9
941	938	944	967	9
956	957	958	965	9
961	957	958	965	9
960	959	958	965	9
962	959	958	965	9
965	5941	5935	5936	9
965	5941	5935	5938	9
938	944	967	956	9
945	944	967	956	9
956	957	958	959	9
956	955	960	959	9
956	955	960	964	9
958	965	5941	5935	9
958	965	5941	5942	9
955	956	957	958	9
955	960	959	958	9
958	959	960	964	9
957	956	967	968	9
944	967	956	957	9
957	956	955	960	9
957	956	955	963	9
957	958	965	966	9
957	958	965	5941	9
957	958	959	960	9
957	958	959	962	9
955	956	967	968	9
944	967	956	955	9
955	956	957	961	9
955	960	959	962	9
959	958	965	966	9
959	958	965	5941	9
959	958	957	961	9
959	960	955	963	9
963	955	960	964	9
962	959	960	964	9
938	944	967	968	9
945	944	967	968	9
966	965	5941	5935	9
966	965	5941	5942	9
6725	6724	6723	6734	9
6728	6724	6723	6734	9
6727	6722	6723	6734	9
6730	6722	6723	6734	9
6734	6742	6736	6737	9
6734	6742	6736	6739	9
6723	6724	6725	6732	9
6728	6724	6725	6732	9
6727	6726	6725	6732	9
6729	6726	6725	6732	9
1126	1127	1134	6732	9
1128	1127	1134	6732	9
6723	6734	6742	6736	9
6723	6734	6742	6743	9
6723	6724	6725	6726	9
6723	6722	6727	6726	9
6723	6722	6727	6731	9
1127	1134	6732	6725	9
1136	1134	6732	6725	9
6722	6723	6724	6725	9
6722	6727	6726	6725	9
6725	6726	6727	6731	9
6724	6723	6734	6735	9
6724	6723	6734	6742	9
6724	6723	6722	6727	9
6724	6723	6722	6730	9
6724	6725	6732	6733	9
1134	6732	6725	6724	9
6724	6725	6726	6727	9
6724	6725	6726	6729	9
6722	6723	6734	6735	9
6722	6723	6734	6742	9
6722	6723	6724	6728	9
6722	6727	6726	6729	9
6726	6725	6732	6733	9
1134	6732	6725	6726	9
6726	6725	6724	6728	9
6726	6727	6722	6730	9
6730	6722	6727	6731	9
6729	6726	6727	6731	9
6735	6734	6742	6736	9
6735	6734	6742	6743	9
1127	1134	6732	6733	9
1136	1134	6732	6733	9
6652	6651	6650	6661	9
6655	6651	6650	6661	9
6654	6649	6650	6661	9
6657	6649	6650	6661	9
6661	5188	5178	5181	9
6661	5188	5178	5177	9
6650	6651	6652	6659	9
6655	6651	6652	6659	9
6654	6653	6652	6659	9
6656	6653	6652	6659	9
6659	6669	6663	6666	9
6659	6669	6663	6664	9
6650	6661	5188	5178	9
6650	6661	5188	5190	9
6650	6651	6652	6653	9
6650	6649	6654	6653	9
6650	6649	6654	6658	9
6652	6659	6669	6663	9
6652	6659	6669	6670	9
6649	6650	6651	6652	9
6649	6654	6653	6652	9
6652	6653	6654	6658	9
6651	6650	6661	6662	9
6651	6650	6661	5188	9
6651	6650	6649	6654	9
6651	6650	6649	6657	9
6651	6652	6659	6660	9
6651	6652	6659	6669	9
6651	6652	6653	6654	9
6651	6652	6653	6656	9
6649	6650	6661	6662	9
6649	6650	6661	5188	9
6649	6650	6651	6655	9
6649	6654	6653	6656	9
6653	6652	6659	6660	9
6653	6652	6659	6669	9
6653	6652	6651	6655	9
6653	6654	6649	6657	9
6657	6649	6654	6658	9
6656	6653	6654	6658	9
6662	6661	5188	5178	9
6662	6661	5188	5190	9
6660	6659	6669	6663	9
6660	6659	6669	6670	9
12424	12423	12422	12433	9
12427	12423	12422	12433	9
12426	12421	12422	12433	9
12429	12421	12422	12433	9
1515	1516	1518	12433	9
1517	1516	1518	12433	9
12422	12423	12424	12431	9
12427	12423	12424	12431	9
12426	12425	12424	12431	9
12428	12425	12424	12431	9
12431	6004	5997	5996	9
12431	6004	5997	5998	9
1516	1518	12433	12422	9
1519	1518	12433	12422	9
12422	12423	12424	12425	9
12422	12421	12426	12425	9
12422	12421	12426	12430	9
12424	12431	6004	5997	9
12424	12431	6004	6006	9
12421	12422	12423	12424	9
12421	12426	12425	12424	9
12424	12425	12426	12430	9
12423	12422	12433	12434	9
1518	12433	12422	12423	9
12423	12422	12421	12426	9
12423	12422	12421	12429	9
12423	12424	12431	12432	9
12423	12424	12431	6004	9
12423	12424	12425	12426	9
12423	12424	12425	12428	9
12421	12422	12433	12434	9
1518	12433	12422	12421	9
12421	12422	12423	12427	9
12421	12426	12425	12428	9
12425	12424	12431	12432	9
12425	12424	12431	6004	9
12425	12424	12423	12427	9
12425	12426	12421	12429	9
12429	12421	12426	12430	9
12428	12425	12426	12430	9
1516	1518	12433	12434	9
1519	1518	12433	12434	9
12432	12431	6004	5997	9
12432	12431	6004	6006	9
3273	3272	3271	3282	9
3276	3272	3271	3282	9
3275	3270	3271	3282	9
3278	3270	3271	3282	9
3271	3272	3273	3280	9
3276	3272	3273	3280	9
3275	3274	3273	3280	9
3277	3274	3273	3280	9
3280	8902	8896	8897	9
3280	8902	8896	8899	9
3271	3272	3273	3274	9
3271	3270	3275	3274	9
3271	3270	3275	3279	9
3273	3280	8902	8896	9
3273	3280	8902	8903	9
3270	3271	3272	3273	9
3270	3275	3274	3273	9
3273	3274	3275	3279	9
3272	3271	3282	3284	9
3272	3271	3282	3283	9
3272	3271	3270	3275	9
3272	3271	3270	3278	9
3272	3273	3280	3281	9
3272	3273	3280	8902	9
3272	3273	3274	3275	9
3272	3273	3274	3277	9
3270	3271	3282	3284	9
3270	3271	3282	3283	9
3270	3271	3272	3276	9
3270	3275	3274	3277	9
3274	3273	3280	3281	9
3274	3273	3280	8902	9
3274	3273	3272	3276	9
3274	3275	3270	3278	9
3278	3270	3275	3279	9
3277	3274	3275	3279	9
3281	3280	8902	8896	9
3281	3280	8902	8903	9
742	741	740	751	9
745	741	740	751	9
744	739	740	751	9
747	739	740	751	9
725	722	728	751	9
723	722	728	751	9
740	741	742	749	9
745	741	742	749	9
744	743	742	749	9
746	743	742	749	9
749	4993	4987	4988	9
749	4993	4987	4990	9
722	728	751	740	9
729	728	751	740	9
740	741	742	743	9
740	739	744	743	9
740	739	744	748	9
742	749	4993	4987	9
742	749	4993	4994	9
739	740	741	742	9
739	744	743	742	9
742	743	744	748	9
741	740	751	752	9
728	751	740	741	9
741	740	739	744	9
741	740	739	747	9
741	742	749	750	9
741	742	749	4993	9
741	742	743	744	9
741	742	743	746	9
739	740	751	752	9
728	751	740	739	9
739	740	741	745	9
739	744	743	746	9
743	742	749	750	9
743	742	749	4993	9
743	742	741	745	9
743	744	739	747	9
747	739	744	748	9
746	743	744	748	9
722	728	751	752	9
729	728	751	752	9
750	749	4993	4987	9
750	749	4993	4994	9
8841	8840	8839	8850	9
8844	8840	8839	8850	9
8843	8838	8839	8850	9
8846	8838	8839	8850	9
8850	9943	9936	9935	9
8850	9943	9936	9937	9
8839	8840	8841	8848	9
8844	8840	8841	8848	9
8843	8842	8841	8848	9
8845	8842	8841	8848	9
8848	8864	8854	8853	9
8848	8864	8854	8857	9
8839	8850	9943	9936	9
8839	8850	9943	9945	9
8839	8840	8841	8842	9
8839	8838	8843	8842	9
8839	8838	8843	8847	9
8841	8848	8864	8854	9
8841	8848	8864	8866	9
8838	8839	8840	8841	9
8838	8843	8842	8841	9
8841	8842	8843	8847	9
8840	8839	8850	8851	9
8840	8839	8850	9943	9
8840	8839	8838	8843	9
8840	8839	8838	8846	9
8840	8841	8848	8849	9
8840	8841	8848	8864	9
8840	8841	8842	8843	9
8840	8841	8842	8845	9
8838	8839	8850	8851	9
8838	8839	8850	9943	9
8838	8839	8840	8844	9
8838	8843	8842	8845	9
8842	8841	8848	8849	9
8842	8841	8848	8864	9
8842	8841	8840	8844	9
8842	8843	8838	8846	9
8846	8838	8843	8847	9
8845	8842	8843	8847	9
8851	8850	9943	9936	9
8851	8850	9943	9945	9
8849	8848	8864	8854	9
8849	8848	8864	8866	9
12564	12563	12562	12573	9
12567	12563	12562	12573	9
12566	12561	12562	12573	9
12569	12561	12562	12573	9
12573	8088	8078	8077	9
12573	8088	8078	8081	9
12562	12563	12564	12571	9
12567	12563	12564	12571	9
12566	12565	12564	12571	9
12568	12565	12564	12571	9
12571	6267	6257	6260	9
12571	6267	6257	6256	9
12562	12573	8088	8078	9
12562	12573	8088	8090	9
12562	12563	12564	12565	9
12562	12561	12566	12565	9
12562	12561	12566	12570	9
12564	12571	6267	6257	9
12564	12571	6267	6269	9
12561	12562	12563	12564	9
12561	12566	12565	12564	9
12564	12565	12566	12570	9
12563	12562	12573	12574	9
12563	12562	12573	8088	9
12563	12562	12561	12566	9
12563	12562	12561	12569	9
12563	12564	12571	12572	9
12563	12564	12571	6267	9
12563	12564	12565	12566	9
12563	12564	12565	12568	9
12561	12562	12573	12574	9
12561	12562	12573	8088	9
12561	12562	12563	12567	9
12561	12566	12565	12568	9
12565	12564	12571	12572	9
12565	12564	12571	6267	9
12565	12564	12563	12567	9
12565	12566	12561	12569	9
12569	12561	12566	12570	9
12568	12565	12566	12570	9
12574	12573	8088	8078	9
12574	12573	8088	8090	9
12572	12571	6267	6257	9
12572	12571	6267	6269	9
7512	7511	7510	7521	9
7515	7511	7510	7521	9
7514	7509	7510	7521	9
7517	7509	7510	7521	9
7521	9724	9717	9718	9
7521	9724	9717	9716	9
7510	7511	7512	7519	9
7515	7511	7512	7519	9
7514	7513	7512	7519	9
7516	7513	7512	7519	9
7519	7529	7523	7526	9
7519	7529	7523	7524	9
7510	7521	9724	9717	9
7510	7521	9724	9726	9
7510	7511	7512	7513	9
7510	7509	7514	7513	9
7510	7509	7514	7518	9
7512	7519	7529	7523	9
7512	7519	7529	7530	9
7509	7510	7511	7512	9
7509	7514	7513	7512	9
7512	7513	7514	7518	9
7511	7510	7521	7522	9
7511	7510	7521	9724	9
7511	7510	7509	7514	9
7511	7510	7509	7517	9
7511	7512	7519	7520	9
7511	7512	7519	7529	9
7511	7512	7513	7514	9
7511	7512	7513	7516	9
7509	7510	7521	7522	9
7509	7510	7521	9724	9
7509	7510	7511	7515	9
7509	7514	7513	7516	9
7513	7512	7519	7520	9
7513	7512	7519	7529	9
7513	7512	7511	7515	9
7513	7514	7509	7517	9
7517	7509	7514	7518	9
7516	7513	7514	7518	9
7522	7521	9724	9717	9
7522	7521	9724	9726	9
7520	7519	7529	7523	9
7520	7519	7529	7530	9
7919	7918	7917	7928	9
7922	7918	7917	7928	9
7921	7916	7917	7928	9
7924	7916	7917	7928	9
7928	7936	7930	7933	9
7928	7936	7930	7931	9
7917	7918	7919	7926	9
7922	7918	7919	7926	9
7921	7920	7919	7926	9
7923	7920	7919	7926	9
7926	7680	7673	7672	9
7926	7680	7673	7674	9
7917	7928	7936	7930	9
7917	7928	7936	7937	9
7917	7918	7919	7920	9
7917	7916	7921	7920	9
7917	7916	7921	7925	9
7919	7926	7680	7673	9
7919	7926	7680	7682	9
7916	7917	7918	7919	9
7916	7921	7920	7919	9
7919	7920	7921	7925	9
7918	7917	7928	7929	9
7918	7917	7928	7936	9
7918	7917	7916	7921	9
7918	7917	7916	7924	9
7918	7919	7926	7927	9
7918	7919	7926	7680	9
7918	7919	7920	7921	9
7918	7919	7920	7923	9
7916	7917	7928	7929	9
7916	7917	7928	7936	9
7916	7917	7918	7922	9
7916	7921	7920	7923	9
7920	7919	7926	7927	9
7920	7919	7926	7680	9
7920	7919	7918	7922	9
7920	7921	7916	7924	9
7924	7916	7921	7925	9
7923	7920	7921	7925	9
7929	7928	7936	7930	9
7929	7928	7936	7937	9
7927	7926	7680	7673	9
7927	7926	7680	7682	9
12774	12773	12772	12783	9
12777	12773	12772	12783	9
12776	12771	12772	12783	9
12779	12771	12772	12783	9
12783	10379	10372	10373	9
12783	10379	10372	10371	9
12772	12773	12774	12781	9
12777	12773	12774	12781	9
12776	12775	12774	12781	9
12778	12775	12774	12781	9
12781	6748	6738	6737	9
12781	6748	6738	6741	9
12772	12783	10379	10372	9
12772	12783	10379	10381	9
12772	12773	12774	12775	9
12772	12771	12776	12775	9
12772	12771	12776	12780	9
12774	12781	6748	6738	9
12774	12781	6748	6750	9
12771	12772	12773	12774	9
12771	12776	12775	12774	9
12774	12775	12776	12780	9
12773	12772	12783	12784	9
12773	12772	12783	10379	9
12773	12772	12771	12776	9
12773	12772	12771	12779	9
12773	12774	12781	12782	9
12773	12774	12781	6748	9
12773	12774	12775	12776	9
12773	12774	12775	12778	9
12771	12772	12783	12784	9
12771	12772	12783	10379	9
12771	12772	12773	12777	9
12771	12776	12775	12778	9
12775	12774	12781	12782	9
12775	12774	12781	6748	9
12775	12774	12773	12777	9
12775	12776	12771	12779	9
12779	12771	12776	12780	9
12778	12775	12776	12780	9
12784	12783	10379	10372	9
12784	12783	10379	10381	9
12782	12781	6748	6738	9
12782	12781	6748	6750	9
150	149	148	159	9
153	149	148	159	9
152	147	148	159	9
155	147	148	159	9
135	136	138	159	9
137	136	138	159	9
148	149	150	157	9
153	149	150	157	9
152	151	150	157	9
154	151	150	157	9
157	6791	6784	6785	9
157	6791	6784	6783	9
136	138	159	148	9
139	138	159	148	9
148	149	150	151	9
148	147	152	151	9
148	147	152	156	9
150	157	6791	6784	9
150	157	6791	6793	9
147	148	149	150	9
147	152	151	150	9
150	151	152	156	9
149	148	159	160	9
138	159	148	149	9
149	148	147	152	9
149	148	147	155	9
149	150	157	158	9
149	150	157	6791	9
149	150	151	152	9
149	150	151	154	9
147	148	159	160	9
138	159	148	147	9
147	148	149	153	9
147	152	151	154	9
151	150	157	158	9
151	150	157	6791	9
151	150	149	153	9
151	152	147	155	9
155	147	152	156	9
154	151	152	156	9
136	138	159	160	9
139	138	159	160	9
158	157	6791	6784	9
158	157	6791	6793	9
11556	11555	11554	11565	9
11559	11555	11554	11565	9
11558	11553	11554	11565	9
11561	11553	11554	11565	9
11565	4475	4468	4467	9
11565	4475	4468	4469	9
11554	11555	11556	11563	9
11559	11555	11556	11563	9
11558	11557	11556	11563	9
11560	11557	11556	11563	9
385	386	393	11563	9
387	386	393	11563	9
11554	11565	4475	4468	9
11554	11565	4475	4477	9
11554	11555	11556	11557	9
11554	11553	11558	11557	9
11554	11553	11558	11562	9
386	393	11563	11556	9
395	393	11563	11556	9
11553	11554	11555	11556	9
11553	11558	11557	11556	9
11556	11557	11558	11562	9
11555	11554	11565	11566	9
11555	11554	11565	4475	9
11555	11554	11553	11558	9
11555	11554	11553	11561	9
11555	11556	11563	11564	9
393	11563	11556	11555	9
11555	11556	11557	11558	9
11555	11556	11557	11560	9
11553	11554	11565	11566	9
11553	11554	11565	4475	9
11553	11554	11555	11559	9
11553	11558	11557	11560	9
11557	11556	11563	11564	9
393	11563	11556	11557	9
11557	11556	11555	11559	9
11557	11558	11553	11561	9
11561	11553	11558	11562	9
11560	11557	11558	11562	9
11566	11565	4475	4468	9
11566	11565	4475	4477	9
386	393	11563	11564	9
395	393	11563	11564	9
1699	1698	1697	1708	9
1702	1698	1697	1708	9
1701	1696	1697	1708	9
1704	1696	1697	1708	9
1708	7884	7874	7873	9
1708	7884	7874	7877	9
1697	1698	1699	1706	9
1702	1698	1699	1706	9
1701	1700	1699	1706	9
1703	1700	1699	1706	9
1682	1679	1685	1706	9
1680	1679	1685	1706	9
1697	1708	7884	7874	9
1697	1708	7884	7886	9
1697	1698	1699	1700	9
1697	1696	1701	1700	9
1697	1696	1701	1705	9
1679	1685	1706	1699	9
1686	1685	1706	1699	9
1696	1697	1698	1699	9
1696	1701	1700	1699	9
1699	1700	1701	1705	9
1698	1697	1708	1709	9
1698	1697	1708	7884	9
1698	1697	1696	1701	9
1698	1697	1696	1704	9
1698	1699	1706	1707	9
1685	1706	1699	1698	9
1698	1699	1700	1701	9
1698	1699	1700	1703	9
1696	1697	1708	1709	9
1696	1697	1708	7884	9
1696	1697	1698	1702	9
1696	1701	1700	1703	9
1700	1699	1706	1707	9
1685	1706	1699	1700	9
1700	1699	1698	1702	9
1700	1701	1696	1704	9
1704	1696	1701	1705	9
1703	1700	1701	1705	9
1709	1708	7884	7874	9
1709	1708	7884	7886	9
1679	1685	1706	1707	9
1686	1685	1706	1707	9
2334	2333	2332	2343	9
2337	2333	2332	2343	9
2336	2331	2332	2343	9
2339	2331	2332	2343	9
2343	6786	6780	6781	9
2343	6786	6780	6783	9
2332	2333	2334	2341	9
2337	2333	2334	2341	9
2336	2335	2334	2341	9
2338	2335	2334	2341	9
2315	2314	2320	2341	9
2317	2314	2320	2341	9
2332	2343	6786	6780	9
2332	2343	6786	6787	9
2332	2333	2334	2335	9
2332	2331	2336	2335	9
2332	2331	2336	2340	9
2314	2320	2341	2334	9
2321	2320	2341	2334	9
2331	2332	2333	2334	9
2331	2336	2335	2334	9
2334	2335	2336	2340	9
2333	2332	2343	2344	9
2333	2332	2343	6786	9
2333	2332	2331	2336	9
2333	2332	2331	2339	9
2333	2334	2341	2342	9
2320	2341	2334	2333	9
2333	2334	2335	2336	9
2333	2334	2335	2338	9
2331	2332	2343	2344	9
2331	2332	2343	6786	9
2331	2332	2333	2337	9
2331	2336	2335	2338	9
2335	2334	2341	2342	9
2320	2341	2334	2335	9
2335	2334	2333	2337	9
2335	2336	2331	2339	9
2339	2331	2336	2340	9
2338	2335	2336	2340	9
2344	2343	6786	6780	9
2344	2343	6786	6787	9
2314	2320	2341	2342	9
2321	2320	2341	2342	9
12844	12843	12842	12853	9
12847	12843	12842	12853	9
12846	12841	12842	12853	9
12849	12841	12842	12853	9
12853	8776	8769	8768	9
12853	8776	8769	8770	9
12842	12843	12844	12851	9
12847	12843	12844	12851	9
12846	12845	12844	12851	9
12848	12845	12844	12851	9
12851	7040	7030	7029	9
12851	7040	7030	7033	9
12842	12853	8776	8769	9
12842	12853	8776	8778	9
12842	12843	12844	12845	9
12842	12841	12846	12845	9
12842	12841	12846	12850	9
12844	12851	7040	7030	9
12844	12851	7040	7042	9
12841	12842	12843	12844	9
12841	12846	12845	12844	9
12844	12845	12846	12850	9
12843	12842	12853	12854	9
12843	12842	12853	8776	9
12843	12842	12841	12846	9
12843	12842	12841	12849	9
12843	12844	12851	12852	9
12843	12844	12851	7040	9
12843	12844	12845	12846	9
12843	12844	12845	12848	9
12841	12842	12853	12854	9
12841	12842	12853	8776	9
12841	12842	12843	12847	9
12841	12846	12845	12848	9
12845	12844	12851	12852	9
12845	12844	12851	7040	9
12845	12844	12843	12847	9
12845	12846	12841	12849	9
12849	12841	12846	12850	9
12848	12845	12846	12850	9
12854	12853	8776	8769	9
12854	12853	8776	8778	9
12852	12851	7040	7030	9
12852	12851	7040	7042	9
3633	3632	3631	3642	9
3636	3632	3631	3642	9
3635	3630	3631	3642	9
3638	3630	3631	3642	9
3631	3632	3633	3640	9
3636	3632	3633	3640	9
3635	3634	3633	3640	9
3637	3634	3633	3640	9
3640	10805	10795	10794	9
3640	10805	10795	10798	9
3631	3632	3633	3634	9
3631	3630	3635	3634	9
3631	3630	3635	3639	9
3633	3640	10805	10795	9
3633	3640	10805	10807	9
3630	3631	3632	3633	9
3630	3635	3634	3633	9
3633	3634	3635	3639	9
3632	3631	3642	3643	9
3632	3631	3642	3644	9
3632	3631	3630	3635	9
3632	3631	3630	3638	9
3632	3633	3640	3641	9
3632	3633	3640	10805	9
3632	3633	3634	3635	9
3632	3633	3634	3637	9
3630	3631	3642	3643	9
3630	3631	3642	3644	9
3630	3631	3632	3636	9
3630	3635	3634	3637	9
3634	3633	3640	3641	9
3634	3633	3640	10805	9
3634	3633	3632	3636	9
3634	3635	3630	3638	9
3638	3630	3635	3639	9
3637	3634	3635	3639	9
3641	3640	10805	10795	9
3641	3640	10805	10807	9
5673	5674	5675	5682	9
5678	5674	5675	5682	9
5677	5676	5675	5682	9
5679	5676	5675	5682	9
1578	1573	1571	5682	9
1574	1573	1571	5682	9
5675	5674	5673	5684	9
5678	5674	5673	5684	9
5677	5672	5673	5684	9
5680	5672	5673	5684	9
5684	5698	5688	5687	9
5684	5698	5688	5691	9
1573	1571	5682	5675	9
1572	1571	5682	5675	9
5675	5674	5673	5672	9
5675	5676	5677	5672	9
5675	5676	5677	5681	9
5673	5684	5698	5688	9
5673	5684	5698	5700	9
5676	5675	5674	5673	9
5676	5677	5672	5673	9
5673	5672	5677	5681	9
5674	5675	5682	5683	9
1571	5682	5675	5674	9
5674	5675	5676	5677	9
5674	5675	5676	5679	9
5674	5673	5684	5685	9
5674	5673	5684	5698	9
5674	5673	5672	5677	9
5674	5673	5672	5680	9
5676	5675	5682	5683	9
1571	5682	5675	5676	9
5676	5675	5674	5678	9
5676	5677	5672	5680	9
5672	5673	5684	5685	9
5672	5673	5684	5698	9
5672	5673	5674	5678	9
5672	5677	5676	5679	9
5679	5676	5677	5681	9
5680	5672	5677	5681	9
1573	1571	5682	5683	9
1572	1571	5682	5683	9
5685	5684	5698	5688	9
5685	5684	5698	5700	9
13026	13025	13024	13035	9
13029	13025	13024	13035	9
13028	13023	13024	13035	9
13031	13023	13024	13035	9
13035	7602	7596	7597	9
13035	7602	7596	7599	9
13024	13025	13026	13033	9
13029	13025	13026	13033	9
13028	13027	13026	13033	9
13030	13027	13026	13033	9
13033	9622	9612	9611	9
13033	9622	9612	9615	9
13024	13035	7602	7596	9
13024	13035	7602	7603	9
13024	13025	13026	13027	9
13024	13023	13028	13027	9
13024	13023	13028	13032	9
13026	13033	9622	9612	9
13026	13033	9622	9624	9
13023	13024	13025	13026	9
13023	13028	13027	13026	9
13026	13027	13028	13032	9
13025	13024	13035	13036	9
13025	13024	13035	7602	9
13025	13024	13023	13028	9
13025	13024	13023	13031	9
13025	13026	13033	13034	9
13025	13026	13033	9622	9
13025	13026	13027	13028	9
13025	13026	13027	13030	9
13023	13024	13035	13036	9
13023	13024	13035	7602	9
13023	13024	13025	13029	9
13023	13028	13027	13030	9
13027	13026	13033	13034	9
13027	13026	13033	9622	9
13027	13026	13025	13029	9
13027	13028	13023	13031	9
13031	13023	13028	13032	9
13030	13027	13028	13032	9
13036	13035	7602	7596	9
13036	13035	7602	7603	9
13034	13033	9622	9612	9
13034	13033	9622	9624	9
5136	5135	5134	5145	9
5139	5135	5134	5145	9
5138	5133	5134	5145	9
5141	5133	5134	5145	9
5145	5153	5147	5150	9
5145	5153	5147	5148	9
5134	5135	5136	5143	9
5139	5135	5136	5143	9
5138	5137	5136	5143	9
5140	5137	5136	5143	9
5143	3923	3916	3915	9
5143	3923	3916	3917	9
5134	5145	5153	5147	9
5134	5145	5153	5154	9
5134	5135	5136	5137	9
5134	5133	5138	5137	9
5134	5133	5138	5142	9
5136	5143	3923	3916	9
5136	5143	3923	3925	9
5133	5134	5135	5136	9
5133	5138	5137	5136	9
5136	5137	5138	5142	9
5135	5134	5145	5146	9
5135	5134	5145	5153	9
5135	5134	5133	5138	9
5135	5134	5133	5141	9
5135	5136	5143	5144	9
5135	5136	5143	3923	9
5135	5136	5137	5138	9
5135	5136	5137	5140	9
5133	5134	5145	5146	9
5133	5134	5145	5153	9
5133	5134	5135	5139	9
5133	5138	5137	5140	9
5137	5136	5143	5144	9
5137	5136	5143	3923	9
5137	5136	5135	5139	9
5137	5138	5133	5141	9
5141	5133	5138	5142	9
5140	5137	5138	5142	9
5146	5145	5153	5147	9
5146	5145	5153	5154	9
5144	5143	3923	3916	9
5144	5143	3923	3925	9
3988	3987	3986	3997	9
3991	3987	3986	3997	9
3990	3985	3986	3997	9
3993	3985	3986	3997	9
3997	10761	10751	10754	9
3997	10761	10751	10750	9
3986	3987	3988	3995	9
3991	3987	3988	3995	9
3990	3989	3988	3995	9
3992	3989	3988	3995	9
3995	4005	3999	4002	9
3995	4005	3999	4000	9
3986	3997	10761	10751	9
3986	3997	10761	10763	9
3986	3987	3988	3989	9
3986	3985	3990	3989	9
3986	3985	3990	3994	9
3988	3995	4005	3999	9
3988	3995	4005	4006	9
3985	3986	3987	3988	9
3985	3990	3989	3988	9
3988	3989	3990	3994	9
3987	3986	3997	3998	9
3987	3986	3997	10761	9
3987	3986	3985	3990	9
3987	3986	3985	3993	9
3987	3988	3995	3996	9
3987	3988	3995	4005	9
3987	3988	3989	3990	9
3987	3988	3989	3992	9
3985	3986	3997	3998	9
3985	3986	3997	10761	9
3985	3986	3987	3991	9
3985	3990	3989	3992	9
3989	3988	3995	3996	9
3989	3988	3995	4005	9
3989	3988	3987	3991	9
3989	3990	3985	3993	9
3993	3985	3990	3994	9
3992	3989	3990	3994	9
3998	3997	10761	10751	9
3998	3997	10761	10763	9
3996	3995	4005	3999	9
3996	3995	4005	4006	9
12214	12213	12212	12223	9
12217	12213	12212	12223	9
12216	12211	12212	12223	9
12219	12211	12212	12223	9
12223	5697	5690	5689	9
12223	5697	5690	5691	9
12212	12213	12214	12221	9
12217	12213	12214	12221	9
12216	12215	12214	12221	9
12218	12215	12214	12221	9
818	819	826	12221	9
820	819	826	12221	9
12212	12223	5697	5690	9
12212	12223	5697	5699	9
12212	12213	12214	12215	9
12212	12211	12216	12215	9
12212	12211	12216	12220	9
819	826	12221	12214	9
828	826	12221	12214	9
12211	12212	12213	12214	9
12211	12216	12215	12214	9
12214	12215	12216	12220	9
12213	12212	12223	12224	9
12213	12212	12223	5697	9
12213	12212	12211	12216	9
12213	12212	12211	12219	9
12213	12214	12221	12222	9
826	12221	12214	12213	9
12213	12214	12215	12216	9
12213	12214	12215	12218	9
12211	12212	12223	12224	9
12211	12212	12223	5697	9
12211	12212	12213	12217	9
12211	12216	12215	12218	9
12215	12214	12221	12222	9
826	12221	12214	12215	9
12215	12214	12213	12217	9
12215	12216	12211	12219	9
12219	12211	12216	12220	9
12218	12215	12216	12220	9
12224	12223	5697	5690	9
12224	12223	5697	5699	9
819	826	12221	12222	9
828	826	12221	12222	9
10095	10094	10093	10104	9
10098	10094	10093	10104	9
10097	10092	10093	10104	9
10100	10092	10093	10104	9
10104	10112	10106	10107	9
10104	10112	10106	10109	9
10093	10094	10095	10102	9
10098	10094	10095	10102	9
10097	10096	10095	10102	9
10099	10096	10095	10102	9
10102	7214	7204	7203	9
10102	7214	7204	7207	9
10093	10104	10112	10106	9
10093	10104	10112	10113	9
10093	10094	10095	10096	9
10093	10092	10097	10096	9
10093	10092	10097	10101	9
10095	10102	7214	7204	9
10095	10102	7214	7216	9
10092	10093	10094	10095	9
10092	10097	10096	10095	9
10095	10096	10097	10101	9
10094	10093	10104	10105	9
10094	10093	10104	10112	9
10094	10093	10092	10097	9
10094	10093	10092	10100	9
10094	10095	10102	10103	9
10094	10095	10102	7214	9
10094	10095	10096	10097	9
10094	10095	10096	10099	9
10092	10093	10104	10105	9
10092	10093	10104	10112	9
10092	10093	10094	10098	9
10092	10097	10096	10099	9
10096	10095	10102	10103	9
10096	10095	10102	7214	9
10096	10095	10094	10098	9
10096	10097	10092	10100	9
10100	10092	10097	10101	9
10099	10096	10097	10101	9
10105	10104	10112	10106	9
10105	10104	10112	10113	9
10103	10102	7214	7204	9
10103	10102	7214	7216	9
12648	12647	12646	12657	9
12651	12647	12646	12657	9
12650	12645	12646	12657	9
12653	12645	12646	12657	9
12657	6428	6418	6421	9
12657	6428	6418	6417	9
12646	12647	12648	12655	9
12651	12647	12648	12655	9
12650	12649	12648	12655	9
12652	12649	12648	12655	9
943	942	949	12655	9
941	942	949	12655	9
12646	12657	6428	6418	9
12646	12657	6428	6430	9
12646	12647	12648	12649	9
12646	12645	12650	12649	9
12646	12645	12650	12654	9
942	949	12655	12648	9
951	949	12655	12648	9
12645	12646	12647	12648	9
12645	12650	12649	12648	9
12648	12649	12650	12654	9
12647	12646	12657	12658	9
12647	12646	12657	6428	9
12647	12646	12645	12650	9
12647	12646	12645	12653	9
12647	12648	12655	12656	9
949	12655	12648	12647	9
12647	12648	12649	12650	9
12647	12648	12649	12652	9
12645	12646	12657	12658	9
12645	12646	12657	6428	9
12645	12646	12647	12651	9
12645	12650	12649	12652	9
12649	12648	12655	12656	9
949	12655	12648	12649	9
12649	12648	12647	12651	9
12649	12650	12645	12653	9
12653	12645	12650	12654	9
12652	12649	12650	12654	9
12658	12657	6428	6418	9
12658	12657	6428	6430	9
942	949	12655	12656	9
951	949	12655	12656	9
9264	9263	9262	9273	9
9267	9263	9262	9273	9
9266	9261	9262	9273	9
9269	9261	9262	9273	9
9273	10175	10168	10169	9
9273	10175	10168	10167	9
9262	9263	9264	9271	9
9267	9263	9264	9271	9
9266	9265	9264	9271	9
9268	9265	9264	9271	9
9271	9286	9279	9278	9
9271	9286	9279	9280	9
9262	9273	10175	10168	9
9262	9273	10175	10177	9
9262	9263	9264	9265	9
9262	9261	9266	9265	9
9262	9261	9266	9270	9
9264	9271	9286	9279	9
9264	9271	9286	9288	9
9261	9262	9263	9264	9
9261	9266	9265	9264	9
9264	9265	9266	9270	9
9263	9262	9273	9274	9
9263	9262	9273	10175	9
9263	9262	9261	9266	9
9263	9262	9261	9269	9
9263	9264	9271	9272	9
9263	9264	9271	9286	9
9263	9264	9265	9266	9
9263	9264	9265	9268	9
9261	9262	9273	9274	9
9261	9262	9273	10175	9
9261	9262	9263	9267	9
9261	9266	9265	9268	9
9265	9264	9271	9272	9
9265	9264	9271	9286	9
9265	9264	9263	9267	9
9265	9266	9261	9269	9
9269	9261	9266	9270	9
9268	9265	9266	9270	9
9274	9273	10175	10168	9
9274	9273	10175	10177	9
9272	9271	9286	9279	9
9272	9271	9286	9288	9
8065	8064	8063	8074	9
8068	8064	8063	8074	9
8067	8062	8063	8074	9
8070	8062	8063	8074	9
8074	5348	5338	5341	9
8074	5348	5338	5337	9
8063	8064	8065	8072	9
8068	8064	8065	8072	9
8067	8066	8065	8072	9
8069	8066	8065	8072	9
8072	8082	8076	8077	9
8072	8082	8076	8079	9
8063	8074	5348	5338	9
8063	8074	5348	5350	9
8063	8064	8065	8066	9
8063	8062	8067	8066	9
8063	8062	8067	8071	9
8065	8072	8082	8076	9
8065	8072	8082	8083	9
8062	8063	8064	8065	9
8062	8067	8066	8065	9
8065	8066	8067	8071	9
8064	8063	8074	8075	9
8064	8063	8074	5348	9
8064	8063	8062	8067	9
8064	8063	8062	8070	9
8064	8065	8072	8073	9
8064	8065	8072	8082	9
8064	8065	8066	8067	9
8064	8065	8066	8069	9
8062	8063	8074	8075	9
8062	8063	8074	5348	9
8062	8063	8064	8068	9
8062	8067	8066	8069	9
8066	8065	8072	8073	9
8066	8065	8072	8082	9
8066	8065	8064	8068	9
8066	8067	8062	8070	9
8070	8062	8067	8071	9
8069	8066	8067	8071	9
8075	8074	5348	5338	9
8075	8074	5348	5350	9
8073	8072	8082	8076	9
8073	8072	8082	8083	9
10153	10152	10151	10162	9
10156	10152	10151	10162	9
10155	10150	10151	10162	9
10158	10150	10151	10162	9
10162	10170	10164	10165	9
10162	10170	10164	10167	9
10151	10152	10153	10160	9
10156	10152	10153	10160	9
10155	10154	10153	10160	9
10157	10154	10153	10160	9
10160	4852	4845	4844	9
10160	4852	4845	4846	9
10151	10162	10170	10164	9
10151	10162	10170	10171	9
10151	10152	10153	10154	9
10151	10150	10155	10154	9
10151	10150	10155	10159	9
10153	10160	4852	4845	9
10153	10160	4852	4854	9
10150	10151	10152	10153	9
10150	10155	10154	10153	9
10153	10154	10155	10159	9
10152	10151	10162	10163	9
10152	10151	10162	10170	9
10152	10151	10150	10155	9
10152	10151	10150	10158	9
10152	10153	10160	10161	9
10152	10153	10160	4852	9
10152	10153	10154	10155	9
10152	10153	10154	10157	9
10150	10151	10162	10163	9
10150	10151	10162	10170	9
10150	10151	10152	10156	9
10150	10155	10154	10157	9
10154	10153	10160	10161	9
10154	10153	10160	4852	9
10154	10153	10152	10156	9
10154	10155	10150	10158	9
10158	10150	10155	10159	9
10157	10154	10155	10159	9
10163	10162	10170	10164	9
10163	10162	10170	10171	9
10161	10160	4852	4845	9
10161	10160	4852	4854	9
9950	9949	9948	9959	9
9953	9949	9948	9959	9
9952	9947	9948	9959	9
9955	9947	9948	9959	9
1853	1854	1856	9959	9
1855	1854	1856	9959	9
9948	9949	9950	9957	9
9953	9949	9950	9957	9
9952	9951	9950	9957	9
9954	9951	9950	9957	9
9957	9967	9961	9962	9
9957	9967	9961	9964	9
1854	1856	9959	9948	9
1857	1856	9959	9948	9
9948	9949	9950	9951	9
9948	9947	9952	9951	9
9948	9947	9952	9956	9
9950	9957	9967	9961	9
9950	9957	9967	9968	9
9947	9948	9949	9950	9
9947	9952	9951	9950	9
9950	9951	9952	9956	9
9949	9948	9959	9960	9
1856	9959	9948	9949	9
9949	9948	9947	9952	9
9949	9948	9947	9955	9
9949	9950	9957	9958	9
9949	9950	9957	9967	9
9949	9950	9951	9952	9
9949	9950	9951	9954	9
9947	9948	9959	9960	9
1856	9959	9948	9947	9
9947	9948	9949	9953	9
9947	9952	9951	9954	9
9951	9950	9957	9958	9
9951	9950	9957	9967	9
9951	9950	9949	9953	9
9951	9952	9947	9955	9
9955	9947	9952	9956	9
9954	9951	9952	9956	9
1854	1856	9959	9960	9
1857	1856	9959	9960	9
9958	9957	9967	9961	9
9958	9957	9967	9968	9
11416	11415	11414	11425	9
11419	11415	11414	11425	9
11418	11413	11414	11425	9
11421	11413	11414	11425	9
11425	4243	4233	4236	9
11425	4243	4233	4232	9
11414	11415	11416	11423	9
11419	11415	11416	11423	9
11418	11417	11416	11423	9
11420	11417	11416	11423	9
11423	7652	7642	7645	9
11423	7652	7642	7641	9
11414	11425	4243	4233	9
11414	11425	4243	4245	9
11414	11415	11416	11417	9
11414	11413	11418	11417	9
11414	11413	11418	11422	9
11416	11423	7652	7642	9
11416	11423	7652	7654	9
11413	11414	11415	11416	9
11413	11418	11417	11416	9
11416	11417	11418	11422	9
11415	11414	11425	11426	9
11415	11414	11425	4243	9
11415	11414	11413	11418	9
11415	11414	11413	11421	9
11415	11416	11423	11424	9
11415	11416	11423	7652	9
11415	11416	11417	11418	9
11415	11416	11417	11420	9
11413	11414	11425	11426	9
11413	11414	11425	4243	9
11413	11414	11415	11419	9
11413	11418	11417	11420	9
11417	11416	11423	11424	9
11417	11416	11423	7652	9
11417	11416	11415	11419	9
11417	11418	11413	11421	9
11421	11413	11418	11422	9
11420	11417	11418	11422	9
11426	11425	4243	4233	9
11426	11425	4243	4245	9
11424	11423	7652	7642	9
11424	11423	7652	7654	9
13754	13753	13752	13763	9
13757	13753	13752	13763	9
13756	13751	13752	13763	9
13759	13751	13752	13763	9
1746	1745	1752	13763	9
1744	1745	1752	13763	9
13752	13753	13754	13761	9
13757	13753	13754	13761	9
13756	13755	13754	13761	9
13758	13755	13754	13761	9
13761	11112	11105	11106	9
13761	11112	11105	11104	9
1745	1752	13763	13752	9
1754	1752	13763	13752	9
13752	13753	13754	13755	9
13752	13751	13756	13755	9
13752	13751	13756	13760	9
13754	13761	11112	11105	9
13754	13761	11112	11114	9
13751	13752	13753	13754	9
13751	13756	13755	13754	9
13754	13755	13756	13760	9
13753	13752	13763	13764	9
1752	13763	13752	13753	9
13753	13752	13751	13756	9
13753	13752	13751	13759	9
13753	13754	13761	13762	9
13753	13754	13761	11112	9
13753	13754	13755	13756	9
13753	13754	13755	13758	9
13751	13752	13763	13764	9
1752	13763	13752	13751	9
13751	13752	13753	13757	9
13751	13756	13755	13758	9
13755	13754	13761	13762	9
13755	13754	13761	11112	9
13755	13754	13753	13757	9
13755	13756	13751	13759	9
13759	13751	13756	13760	9
13758	13755	13756	13760	9
1745	1752	13763	13764	9
1754	1752	13763	13764	9
13762	13761	11112	11105	9
13762	13761	11112	11114	9
2896	2897	2898	2905	9
2901	2897	2898	2905	9
2900	2899	2898	2905	9
2902	2899	2898	2905	9
2905	5844	5834	5837	9
2905	5844	5834	5833	9
2898	2897	2896	2907	9
2901	2897	2896	2907	9
2900	2895	2896	2907	9
2903	2895	2896	2907	9
2898	2905	5844	5834	9
2898	2905	5844	5846	9
2895	2896	2897	2898	9
2895	2900	2899	2898	9
2898	2899	2900	2904	9
2896	2897	2898	2899	9
2896	2895	2900	2899	9
2896	2895	2900	2904	9
2897	2898	2905	2906	9
2897	2898	2905	5844	9
2897	2898	2899	2900	9
2897	2898	2899	2902	9
2897	2896	2907	2908	9
2897	2896	2907	2909	9
2897	2896	2895	2900	9
2897	2896	2895	2903	9
2899	2898	2905	2906	9
2899	2898	2905	5844	9
2899	2898	2897	2901	9
2899	2900	2895	2903	9
2895	2896	2907	2908	9
2895	2896	2907	2909	9
2895	2896	2897	2901	9
2895	2900	2899	2902	9
2902	2899	2900	2904	9
2903	2895	2900	2904	9
2906	2905	5844	5834	9
2906	2905	5844	5846	9
246	245	244	255	9
249	245	244	255	9
248	243	244	255	9
251	243	244	255	9
231	232	234	255	9
233	232	234	255	9
244	245	246	253	9
249	245	246	253	9
248	247	246	253	9
250	247	246	253	9
253	8771	8765	8768	9
253	8771	8765	8766	9
232	234	255	244	9
235	234	255	244	9
244	245	246	247	9
244	243	248	247	9
244	243	248	252	9
246	253	8771	8765	9
246	253	8771	8772	9
243	244	245	246	9
243	248	247	246	9
246	247	248	252	9
245	244	255	256	9
234	255	244	245	9
245	244	243	248	9
245	244	243	251	9
245	246	253	254	9
245	246	253	8771	9
245	246	247	248	9
245	246	247	250	9
243	244	255	256	9
234	255	244	243	9
243	244	245	249	9
243	248	247	250	9
247	246	253	254	9
247	246	253	8771	9
247	246	245	249	9
247	248	243	251	9
251	243	248	252	9
250	247	248	252	9
232	234	255	256	9
235	234	255	256	9
254	253	8771	8765	9
254	253	8771	8772	9
13068	13067	13066	13077	9
13071	13067	13066	13077	9
13070	13065	13066	13077	9
13073	13065	13066	13077	9
13077	10730	10723	10722	9
13077	10730	10723	10724	9
13066	13067	13068	13075	9
13071	13067	13068	13075	9
13070	13069	13068	13075	9
13072	13069	13068	13075	9
13075	7651	7644	7643	9
13075	7651	7644	7645	9
13066	13077	10730	10723	9
13066	13077	10730	10732	9
13066	13067	13068	13069	9
13066	13065	13070	13069	9
13066	13065	13070	13074	9
13068	13075	7651	7644	9
13068	13075	7651	7653	9
13065	13066	13067	13068	9
13065	13070	13069	13068	9
13068	13069	13070	13074	9
13067	13066	13077	13078	9
13067	13066	13077	10730	9
13067	13066	13065	13070	9
13067	13066	13065	13073	9
13067	13068	13075	13076	9
13067	13068	13075	7651	9
13067	13068	13069	13070	9
13067	13068	13069	13072	9
13065	13066	13077	13078	9
13065	13066	13077	10730	9
13065	13066	13067	13071	9
13065	13070	13069	13072	9
13069	13068	13075	13076	9
13069	13068	13075	7651	9
13069	13068	13067	13071	9
13069	13070	13065	13073	9
13073	13065	13070	13074	9
13072	13069	13070	13074	9
13078	13077	10730	10723	9
13078	13077	10730	10732	9
13076	13075	7651	7644	9
13076	13075	7651	7653	9
12886	12885	12884	12895	9
12889	12885	12884	12895	9
12888	12883	12884	12895	9
12891	12883	12884	12895	9
12895	7179	7173	7174	9
12895	7179	7173	7176	9
12884	12885	12886	12893	9
12889	12885	12886	12893	9
12888	12887	12886	12893	9
12890	12887	12886	12893	9
12893	8805	8798	8799	9
12893	8805	8798	8797	9
12884	12895	7179	7173	9
12884	12895	7179	7180	9
12884	12885	12886	12887	9
12884	12883	12888	12887	9
12884	12883	12888	12892	9
12886	12893	8805	8798	9
12886	12893	8805	8807	9
12883	12884	12885	12886	9
12883	12888	12887	12886	9
12886	12887	12888	12892	9
12885	12884	12895	12896	9
12885	12884	12895	7179	9
12885	12884	12883	12888	9
12885	12884	12883	12891	9
12885	12886	12893	12894	9
12885	12886	12893	8805	9
12885	12886	12887	12888	9
12885	12886	12887	12890	9
12883	12884	12895	12896	9
12883	12884	12895	7179	9
12883	12884	12885	12889	9
12883	12888	12887	12890	9
12887	12886	12893	12894	9
12887	12886	12893	8805	9
12887	12886	12885	12889	9
12887	12888	12883	12891	9
12891	12883	12888	12892	9
12890	12887	12888	12892	9
12896	12895	7179	7173	9
12896	12895	7179	7180	9
12894	12893	8805	8798	9
12894	12893	8805	8807	9
13334	13333	13332	13343	9
13337	13333	13332	13343	9
13336	13331	13332	13343	9
13339	13331	13332	13343	9
694	695	702	13343	9
696	695	702	13343	9
13332	13333	13334	13341	9
13337	13333	13334	13341	9
13336	13335	13334	13341	9
13338	13335	13334	13341	9
13341	8308	8298	8297	9
13341	8308	8298	8301	9
695	702	13343	13332	9
704	702	13343	13332	9
13332	13333	13334	13335	9
13332	13331	13336	13335	9
13332	13331	13336	13340	9
13334	13341	8308	8298	9
13334	13341	8308	8310	9
13331	13332	13333	13334	9
13331	13336	13335	13334	9
13334	13335	13336	13340	9
13333	13332	13343	13344	9
702	13343	13332	13333	9
13333	13332	13331	13336	9
13333	13332	13331	13339	9
13333	13334	13341	13342	9
13333	13334	13341	8308	9
13333	13334	13335	13336	9
13333	13334	13335	13338	9
13331	13332	13343	13344	9
702	13343	13332	13331	9
13331	13332	13333	13337	9
13331	13336	13335	13338	9
13335	13334	13341	13342	9
13335	13334	13341	8308	9
13335	13334	13333	13337	9
13335	13336	13331	13339	9
13339	13331	13336	13340	9
13338	13335	13336	13340	9
695	702	13343	13344	9
704	702	13343	13344	9
13342	13341	8308	8298	9
13342	13341	8308	8310	9
2427	2426	2425	2436	9
2430	2426	2425	2436	9
2429	2424	2425	2436	9
2432	2424	2425	2436	9
2408	2407	2413	2436	9
2410	2407	2413	2436	9
2425	2426	2427	2434	9
2430	2426	2427	2434	9
2429	2428	2427	2434	9
2431	2428	2427	2434	9
2434	8199	8193	8196	9
2434	8199	8193	8194	9
2407	2413	2436	2425	9
2414	2413	2436	2425	9
2425	2426	2427	2428	9
2425	2424	2429	2428	9
2425	2424	2429	2433	9
2427	2434	8199	8193	9
2427	2434	8199	8200	9
2424	2425	2426	2427	9
2424	2429	2428	2427	9
2427	2428	2429	2433	9
2426	2425	2436	2437	9
2413	2436	2425	2426	9
2426	2425	2424	2429	9
2426	2425	2424	2432	9
2426	2427	2434	2435	9
2426	2427	2434	8199	9
2426	2427	2428	2429	9
2426	2427	2428	2431	9
2424	2425	2436	2437	9
2413	2436	2425	2424	9
2424	2425	2426	2430	9
2424	2429	2428	2431	9
2428	2427	2434	2435	9
2428	2427	2434	8199	9
2428	2427	2426	2430	9
2428	2429	2424	2432	9
2432	2424	2429	2433	9
2431	2428	2429	2433	9
2407	2413	2436	2437	9
2414	2413	2436	2437	9
2435	2434	8199	8193	9
2435	2434	8199	8200	9
11864	11863	11862	11873	9
11867	11863	11862	11873	9
11866	11861	11862	11873	9
11869	11861	11862	11873	9
1255	1254	1256	11873	9
1253	1254	1256	11873	9
11862	11863	11864	11871	9
11867	11863	11864	11871	9
11866	11865	11864	11871	9
11868	11865	11864	11871	9
11871	5028	5018	5017	9
11871	5028	5018	5021	9
1254	1256	11873	11862	9
1257	1256	11873	11862	9
11862	11863	11864	11865	9
11862	11861	11866	11865	9
11862	11861	11866	11870	9
11864	11871	5028	5018	9
11864	11871	5028	5030	9
11861	11862	11863	11864	9
11861	11866	11865	11864	9
11864	11865	11866	11870	9
11863	11862	11873	11874	9
1256	11873	11862	11863	9
11863	11862	11861	11866	9
11863	11862	11861	11869	9
11863	11864	11871	11872	9
11863	11864	11871	5028	9
11863	11864	11865	11866	9
11863	11864	11865	11868	9
11861	11862	11873	11874	9
1256	11873	11862	11861	9
11861	11862	11863	11867	9
11861	11866	11865	11868	9
11865	11864	11871	11872	9
11865	11864	11871	5028	9
11865	11864	11863	11867	9
11865	11866	11861	11869	9
11869	11861	11866	11870	9
11868	11865	11866	11870	9
1254	1256	11873	11874	9
1257	1256	11873	11874	9
11872	11871	5028	5018	9
11872	11871	5028	5030	9
2943	2942	2941	2952	9
2946	2942	2941	2952	9
2945	2940	2941	2952	9
2948	2940	2941	2952	9
2941	2942	2943	2950	9
2946	2942	2943	2950	9
2945	2944	2943	2950	9
2947	2944	2943	2950	9
2950	6553	6547	6548	9
2950	6553	6547	6550	9
2941	2942	2943	2944	9
2941	2940	2945	2944	9
2941	2940	2945	2949	9
2943	2950	6553	6547	9
2943	2950	6553	6554	9
2940	2941	2942	2943	9
2940	2945	2944	2943	9
2943	2944	2945	2949	9
2942	2941	2952	2953	9
2942	2941	2952	2954	9
2942	2941	2940	2945	9
2942	2941	2940	2948	9
2942	2943	2950	2951	9
2942	2943	2950	6553	9
2942	2943	2944	2945	9
2942	2943	2944	2947	9
2940	2941	2952	2953	9
2940	2941	2952	2954	9
2940	2941	2942	2946	9
2940	2945	2944	2947	9
2944	2943	2950	2951	9
2944	2943	2950	6553	9
2944	2943	2942	2946	9
2944	2945	2940	2948	9
2948	2940	2945	2949	9
2947	2944	2945	2949	9
2951	2950	6553	6547	9
2951	2950	6553	6554	9
13824	13823	13822	13833	9
13827	13823	13822	13833	9
13826	13821	13822	13833	9
13829	13821	13822	13833	9
2196	2195	2202	13833	9
2194	2195	2202	13833	9
13822	13823	13824	13831	9
13827	13823	13824	13831	9
13826	13825	13824	13831	9
13828	13825	13824	13831	9
1898	1899	1906	13831	9
1900	1899	1906	13831	9
2195	2202	13833	13822	9
2204	2202	13833	13822	9
13822	13823	13824	13825	9
13822	13821	13826	13825	9
13822	13821	13826	13830	9
1899	1906	13831	13824	9
1908	1906	13831	13824	9
13821	13822	13823	13824	9
13821	13826	13825	13824	9
13824	13825	13826	13830	9
13823	13822	13833	13834	9
2202	13833	13822	13823	9
13823	13822	13821	13826	9
13823	13822	13821	13829	9
13823	13824	13831	13832	9
1906	13831	13824	13823	9
13823	13824	13825	13826	9
13823	13824	13825	13828	9
13821	13822	13833	13834	9
2202	13833	13822	13821	9
13821	13822	13823	13827	9
13821	13826	13825	13828	9
13825	13824	13831	13832	9
1906	13831	13824	13825	9
13825	13824	13823	13827	9
13825	13826	13821	13829	9
13829	13821	13826	13830	9
13828	13825	13826	13830	9
2195	2202	13833	13834	9
2204	2202	13833	13834	9
1899	1906	13831	13832	9
1908	1906	13831	13832	9
8327	8328	8329	8336	9
8332	8328	8329	8336	9
8331	8330	8329	8336	9
8333	8330	8329	8336	9
8336	8346	8340	8341	9
8336	8346	8340	8343	9
8329	8328	8327	8338	9
8332	8328	8327	8338	9
8331	8326	8327	8338	9
8334	8326	8327	8338	9
8338	9690	9684	9685	9
8338	9690	9684	9687	9
8329	8336	8346	8340	9
8329	8336	8346	8347	9
8329	8328	8327	8326	9
8329	8330	8331	8326	9
8329	8330	8331	8335	9
8327	8338	9690	9684	9
8327	8338	9690	9691	9
8330	8329	8328	8327	9
8330	8331	8326	8327	9
8327	8326	8331	8335	9
8328	8329	8336	8337	9
8328	8329	8336	8346	9
8328	8329	8330	8331	9
8328	8329	8330	8333	9
8328	8327	8338	8339	9
8328	8327	8338	9690	9
8328	8327	8326	8331	9
8328	8327	8326	8334	9
8330	8329	8336	8337	9
8330	8329	8336	8346	9
8330	8329	8328	8332	9
8330	8331	8326	8334	9
8326	8327	8338	8339	9
8326	8327	8338	9690	9
8326	8327	8328	8332	9
8326	8331	8330	8333	9
8333	8330	8331	8335	9
8334	8326	8331	8335	9
8337	8336	8346	8340	9
8337	8336	8346	8347	9
8339	8338	9690	9684	9
8339	8338	9690	9691	9
1393	1392	1391	1402	9
1396	1392	1391	1402	9
1395	1390	1391	1402	9
1398	1390	1391	1402	9
603	602	609	1402	9
601	602	609	1402	9
1391	1392	1393	1400	9
1396	1392	1393	1400	9
1395	1394	1393	1400	9
1397	1394	1393	1400	9
1374	1373	1379	1400	9
1376	1373	1379	1400	9
602	609	1402	1391	9
611	609	1402	1391	9
1391	1392	1393	1394	9
1391	1390	1395	1394	9
1391	1390	1395	1399	9
1373	1379	1400	1393	9
1380	1379	1400	1393	9
1390	1391	1392	1393	9
1390	1395	1394	1393	9
1393	1394	1395	1399	9
1392	1391	1402	1403	9
609	1402	1391	1392	9
1392	1391	1390	1395	9
1392	1391	1390	1398	9
1392	1393	1400	1401	9
1379	1400	1393	1392	9
1392	1393	1394	1395	9
1392	1393	1394	1397	9
1390	1391	1402	1403	9
609	1402	1391	1390	9
1390	1391	1392	1396	9
1390	1395	1394	1397	9
1394	1393	1400	1401	9
1379	1400	1393	1394	9
1394	1393	1392	1396	9
1394	1395	1390	1398	9
1398	1390	1395	1399	9
1397	1394	1395	1399	9
602	609	1402	1403	9
611	609	1402	1403	9
1373	1379	1400	1401	9
1380	1379	1400	1401	9
7439	7438	7437	7448	9
7442	7438	7437	7448	9
7441	7436	7437	7448	9
7444	7436	7437	7448	9
7448	7456	7450	7453	9
7448	7456	7450	7451	9
7437	7438	7439	7446	9
7442	7438	7439	7446	9
7441	7440	7439	7446	9
7443	7440	7439	7446	9
7446	6238	6228	6231	9
7446	6238	6228	6227	9
7437	7448	7456	7450	9
7437	7448	7456	7457	9
7437	7438	7439	7440	9
7437	7436	7441	7440	9
7437	7436	7441	7445	9
7439	7446	6238	6228	9
7439	7446	6238	6240	9
7436	7437	7438	7439	9
7436	7441	7440	7439	9
7439	7440	7441	7445	9
7438	7437	7448	7449	9
7438	7437	7448	7456	9
7438	7437	7436	7441	9
7438	7437	7436	7444	9
7438	7439	7446	7447	9
7438	7439	7446	6238	9
7438	7439	7440	7441	9
7438	7439	7440	7443	9
7436	7437	7448	7449	9
7436	7437	7448	7456	9
7436	7437	7438	7442	9
7436	7441	7440	7443	9
7440	7439	7446	7447	9
7440	7439	7446	6238	9
7440	7439	7438	7442	9
7440	7441	7436	7444	9
7444	7436	7441	7445	9
7443	7440	7441	7445	9
7449	7448	7456	7450	9
7449	7448	7456	7457	9
7447	7446	6238	6228	9
7447	7446	6238	6240	9
11610	11611	11612	11619	9
11615	11611	11612	11619	9
11614	11613	11612	11619	9
11616	11613	11612	11619	9
11619	7563	7556	7555	9
11619	7563	7556	7557	9
11612	11611	11610	11621	9
11615	11611	11610	11621	9
11614	11609	11610	11621	9
11617	11609	11610	11621	9
11621	4620	4613	4614	9
11621	4620	4613	4612	9
11612	11619	7563	7556	9
11612	11619	7563	7565	9
11609	11610	11611	11612	9
11609	11614	11613	11612	9
11612	11613	11614	11618	9
11610	11621	4620	4613	9
11610	11621	4620	4622	9
11610	11611	11612	11613	9
11610	11609	11614	11613	9
11610	11609	11614	11618	9
11611	11612	11619	11620	9
11611	11612	11619	7563	9
11611	11612	11613	11614	9
11611	11612	11613	11616	9
11611	11610	11621	11622	9
11611	11610	11621	4620	9
11611	11610	11609	11614	9
11611	11610	11609	11617	9
11613	11612	11619	11620	9
11613	11612	11619	7563	9
11613	11612	11611	11615	9
11613	11614	11609	11617	9
11609	11610	11621	11622	9
11609	11610	11621	4620	9
11609	11610	11611	11615	9
11609	11614	11613	11616	9
11616	11613	11614	11618	9
11617	11609	11614	11618	9
11620	11619	7563	7556	9
11620	11619	7563	7565	9
11622	11621	4620	4613	9
11622	11621	4620	4622	9
12240	12241	12242	12249	9
12245	12241	12242	12249	9
12244	12243	12242	12249	9
12246	12243	12242	12249	9
12249	6616	6609	6610	9
12249	6616	6609	6608	9
12242	12241	12240	12251	9
12245	12241	12240	12251	9
12244	12239	12240	12251	9
12247	12239	12240	12251	9
12251	5727	5717	5716	9
12251	5727	5717	5720	9
12242	12249	6616	6609	9
12242	12249	6616	6618	9
12239	12240	12241	12242	9
12239	12244	12243	12242	9
12242	12243	12244	12248	9
12240	12251	5727	5717	9
12240	12251	5727	5729	9
12240	12241	12242	12243	9
12240	12239	12244	12243	9
12240	12239	12244	12248	9
12241	12242	12249	12250	9
12241	12242	12249	6616	9
12241	12242	12243	12244	9
12241	12242	12243	12246	9
12241	12240	12251	12252	9
12241	12240	12251	5727	9
12241	12240	12239	12244	9
12241	12240	12239	12247	9
12243	12242	12249	12250	9
12243	12242	12249	6616	9
12243	12242	12241	12245	9
12243	12244	12239	12247	9
12239	12240	12251	12252	9
12239	12240	12251	5727	9
12239	12240	12241	12245	9
12239	12244	12243	12246	9
12246	12243	12244	12248	9
12247	12239	12244	12248	9
12250	12249	6616	6609	9
12250	12249	6616	6618	9
12252	12251	5727	5717	9
12252	12251	5727	5729	9
6244	6243	6242	6253	9
6247	6243	6242	6253	9
6246	6241	6242	6253	9
6249	6241	6242	6253	9
6253	6261	6255	6258	9
6253	6261	6255	6256	9
6242	6243	6244	6251	9
6247	6243	6244	6251	9
6246	6245	6244	6251	9
6248	6245	6244	6251	9
6251	4184	4177	4178	9
6251	4184	4177	4176	9
6242	6253	6261	6255	9
6242	6253	6261	6262	9
6242	6243	6244	6245	9
6242	6241	6246	6245	9
6242	6241	6246	6250	9
6244	6251	4184	4177	9
6244	6251	4184	4186	9
6241	6242	6243	6244	9
6241	6246	6245	6244	9
6244	6245	6246	6250	9
6243	6242	6253	6254	9
6243	6242	6253	6261	9
6243	6242	6241	6246	9
6243	6242	6241	6249	9
6243	6244	6251	6252	9
6243	6244	6251	4184	9
6243	6244	6245	6246	9
6243	6244	6245	6248	9
6241	6242	6253	6254	9
6241	6242	6253	6261	9
6241	6242	6243	6247	9
6241	6246	6245	6248	9
6245	6244	6251	6252	9
6245	6244	6251	4184	9
6245	6244	6243	6247	9
6245	6246	6241	6249	9
6249	6241	6246	6250	9
6248	6245	6246	6250	9
6254	6253	6261	6255	9
6254	6253	6261	6262	9
6252	6251	4184	4177	9
6252	6251	4184	4186	9
4133	4132	4131	4142	9
4136	4132	4131	4142	9
4135	4130	4131	4142	9
4138	4130	4131	4142	9
4142	4150	4144	4145	9
4142	4150	4144	4147	9
4131	4132	4133	4140	9
4136	4132	4133	4140	9
4135	4134	4133	4140	9
4137	4134	4133	4140	9
4140	7767	7760	7761	9
4140	7767	7760	7759	9
4131	4142	4150	4144	9
4131	4142	4150	4151	9
4131	4132	4133	4134	9
4131	4130	4135	4134	9
4131	4130	4135	4139	9
4133	4140	7767	7760	9
4133	4140	7767	7769	9
4130	4131	4132	4133	9
4130	4135	4134	4133	9
4133	4134	4135	4139	9
4132	4131	4142	4143	9
4132	4131	4142	4150	9
4132	4131	4130	4135	9
4132	4131	4130	4138	9
4132	4133	4140	4141	9
4132	4133	4140	7767	9
4132	4133	4134	4135	9
4132	4133	4134	4137	9
4130	4131	4142	4143	9
4130	4131	4142	4150	9
4130	4131	4132	4136	9
4130	4135	4134	4137	9
4134	4133	4140	4141	9
4134	4133	4140	7767	9
4134	4133	4132	4136	9
4134	4135	4130	4138	9
4138	4130	4135	4139	9
4137	4134	4135	4139	9
4143	4142	4150	4144	9
4143	4142	4150	4151	9
4141	4140	7767	7760	9
4141	4140	7767	7769	9
11710	11709	11708	11719	9
11713	11709	11708	11719	9
11712	11707	11708	11719	9
11715	11707	11708	11719	9
11719	8352	8342	8341	9
11719	8352	8342	8345	9
11708	11709	11710	11717	9
11713	11709	11710	11717	9
11712	11711	11710	11717	9
11714	11711	11710	11717	9
11717	4766	4756	4759	9
11717	4766	4756	4755	9
11708	11719	8352	8342	9
11708	11719	8352	8354	9
11708	11709	11710	11711	9
11708	11707	11712	11711	9
11708	11707	11712	11716	9
11710	11717	4766	4756	9
11710	11717	4766	4768	9
11707	11708	11709	11710	9
11707	11712	11711	11710	9
11710	11711	11712	11716	9
11709	11708	11719	11720	9
11709	11708	11719	8352	9
11709	11708	11707	11712	9
11709	11708	11707	11715	9
11709	11710	11717	11718	9
11709	11710	11717	4766	9
11709	11710	11711	11712	9
11709	11710	11711	11714	9
11707	11708	11719	11720	9
11707	11708	11719	8352	9
11707	11708	11709	11713	9
11707	11712	11711	11714	9
11711	11710	11717	11718	9
11711	11710	11717	4766	9
11711	11710	11709	11713	9
11711	11712	11707	11715	9
11715	11707	11712	11716	9
11714	11711	11712	11716	9
11720	11719	8352	8342	9
11720	11719	8352	8354	9
11718	11717	4766	4756	9
11718	11717	4766	4768	9
7992	7991	7990	8001	9
7995	7991	7990	8001	9
7994	7989	7990	8001	9
7997	7989	7990	8001	9
8001	8009	8003	8006	9
8001	8009	8003	8004	9
7990	7991	7992	7999	9
7995	7991	7992	7999	9
7994	7993	7992	7999	9
7996	7993	7992	7999	9
7999	3894	3887	3886	9
7999	3894	3887	3888	9
7990	8001	8009	8003	9
7990	8001	8009	8010	9
7990	7991	7992	7993	9
7990	7989	7994	7993	9
7990	7989	7994	7998	9
7992	7999	3894	3887	9
7992	7999	3894	3896	9
7989	7990	7991	7992	9
7989	7994	7993	7992	9
7992	7993	7994	7998	9
7991	7990	8001	8002	9
7991	7990	8001	8009	9
7991	7990	7989	7994	9
7991	7990	7989	7997	9
7991	7992	7999	8000	9
7991	7992	7999	3894	9
7991	7992	7993	7994	9
7991	7992	7993	7996	9
7989	7990	8001	8002	9
7989	7990	8001	8009	9
7989	7990	7991	7995	9
7989	7994	7993	7996	9
7993	7992	7999	8000	9
7993	7992	7999	3894	9
7993	7992	7991	7995	9
7993	7994	7989	7997	9
7997	7989	7994	7998	9
7996	7993	7994	7998	9
8002	8001	8009	8003	9
8002	8001	8009	8010	9
8000	7999	3894	3887	9
8000	7999	3894	3896	9
4714	4713	4712	4723	9
4717	4713	4712	4723	9
4716	4711	4712	4723	9
4719	4711	4712	4723	9
4723	6340	6333	6334	9
4723	6340	6333	6332	9
4712	4713	4714	4721	9
4717	4713	4714	4721	9
4716	4715	4714	4721	9
4718	4715	4714	4721	9
4721	4731	4725	4726	9
4721	4731	4725	4728	9
4712	4723	6340	6333	9
4712	4723	6340	6342	9
4712	4713	4714	4715	9
4712	4711	4716	4715	9
4712	4711	4716	4720	9
4714	4721	4731	4725	9
4714	4721	4731	4732	9
4711	4712	4713	4714	9
4711	4716	4715	4714	9
4714	4715	4716	4720	9
4713	4712	4723	4724	9
4713	4712	4723	6340	9
4713	4712	4711	4716	9
4713	4712	4711	4719	9
4713	4714	4721	4722	9
4713	4714	4721	4731	9
4713	4714	4715	4716	9
4713	4714	4715	4718	9
4711	4712	4723	4724	9
4711	4712	4723	6340	9
4711	4712	4713	4717	9
4711	4716	4715	4718	9
4715	4714	4721	4722	9
4715	4714	4721	4731	9
4715	4714	4713	4717	9
4715	4716	4711	4719	9
4719	4711	4716	4720	9
4718	4715	4716	4720	9
4724	4723	6340	6333	9
4724	4723	6340	6342	9
4722	4721	4731	4725	9
4722	4721	4731	4732	9
4656	4655	4654	4665	9
4659	4655	4654	4665	9
4658	4653	4654	4665	9
4661	4653	4654	4665	9
851	850	857	4665	9
849	850	857	4665	9
4654	4655	4656	4663	9
4659	4655	4656	4663	9
4658	4657	4656	4663	9
4660	4657	4656	4663	9
4663	4678	4671	4672	9
4663	4678	4671	4670	9
850	857	4665	4654	9
859	857	4665	4654	9
4654	4655	4656	4657	9
4654	4653	4658	4657	9
4654	4653	4658	4662	9
4656	4663	4678	4671	9
4656	4663	4678	4680	9
4653	4654	4655	4656	9
4653	4658	4657	4656	9
4656	4657	4658	4662	9
4655	4654	4665	4666	9
857	4665	4654	4655	9
4655	4654	4653	4658	9
4655	4654	4653	4661	9
4655	4656	4663	4664	9
4655	4656	4663	4678	9
4655	4656	4657	4658	9
4655	4656	4657	4660	9
4653	4654	4665	4666	9
857	4665	4654	4653	9
4653	4654	4655	4659	9
4653	4658	4657	4660	9
4657	4656	4663	4664	9
4657	4656	4663	4678	9
4657	4656	4655	4659	9
4657	4658	4653	4661	9
4661	4653	4658	4662	9
4660	4657	4658	4662	9
850	857	4665	4666	9
859	857	4665	4666	9
4664	4663	4678	4671	9
4664	4663	4678	4680	9
10066	10065	10064	10075	9
10069	10065	10064	10075	9
10068	10063	10064	10075	9
10071	10063	10064	10075	9
10075	10089	10079	10078	9
10075	10089	10079	10082	9
10064	10065	10066	10073	9
10069	10065	10066	10073	9
10068	10067	10066	10073	9
10070	10067	10066	10073	9
10073	8777	8767	8770	9
10073	8777	8767	8766	9
10064	10075	10089	10079	9
10064	10075	10089	10091	9
10064	10065	10066	10067	9
10064	10063	10068	10067	9
10064	10063	10068	10072	9
10066	10073	8777	8767	9
10066	10073	8777	8779	9
10063	10064	10065	10066	9
10063	10068	10067	10066	9
10066	10067	10068	10072	9
10065	10064	10075	10076	9
10065	10064	10075	10089	9
10065	10064	10063	10068	9
10065	10064	10063	10071	9
10065	10066	10073	10074	9
10065	10066	10073	8777	9
10065	10066	10067	10068	9
10065	10066	10067	10070	9
10063	10064	10075	10076	9
10063	10064	10075	10089	9
10063	10064	10065	10069	9
10063	10068	10067	10070	9
10067	10066	10073	10074	9
10067	10066	10073	8777	9
10067	10066	10065	10069	9
10067	10068	10063	10071	9
10071	10063	10068	10072	9
10070	10067	10068	10072	9
10076	10075	10089	10079	9
10076	10075	10089	10091	9
10074	10073	8777	8767	9
10074	10073	8777	8779	9
5821	5820	5819	5830	9
5824	5820	5819	5830	9
5823	5818	5819	5830	9
5826	5818	5819	5830	9
5830	5838	5832	5835	9
5830	5838	5832	5833	9
5819	5820	5821	5828	9
5824	5820	5821	5828	9
5823	5822	5821	5828	9
5825	5822	5821	5828	9
5828	8756	8750	8753	9
5828	8756	8750	8751	9
5819	5830	5838	5832	9
5819	5830	5838	5839	9
5819	5820	5821	5822	9
5819	5818	5823	5822	9
5819	5818	5823	5827	9
5821	5828	8756	8750	9
5821	5828	8756	8757	9
5818	5819	5820	5821	9
5818	5823	5822	5821	9
5821	5822	5823	5827	9
5820	5819	5830	5831	9
5820	5819	5830	5838	9
5820	5819	5818	5823	9
5820	5819	5818	5826	9
5820	5821	5828	5829	9
5820	5821	5828	8756	9
5820	5821	5822	5823	9
5820	5821	5822	5825	9
5818	5819	5830	5831	9
5818	5819	5830	5838	9
5818	5819	5820	5824	9
5818	5823	5822	5825	9
5822	5821	5828	5829	9
5822	5821	5828	8756	9
5822	5821	5820	5824	9
5822	5823	5818	5826	9
5826	5818	5823	5827	9
5825	5822	5823	5827	9
5831	5830	5838	5832	9
5831	5830	5838	5839	9
5829	5828	8756	8750	9
5829	5828	8756	8757	9
2988	2987	2986	2997	9
2991	2987	2986	2997	9
2990	2985	2986	2997	9
2993	2985	2986	2997	9
2986	2987	2988	2995	9
2991	2987	2988	2995	9
2990	2989	2988	2995	9
2992	2989	2988	2995	9
2995	6713	6707	6708	9
2995	6713	6707	6710	9
2986	2987	2988	2989	9
2986	2985	2990	2989	9
2986	2985	2990	2994	9
2988	2995	6713	6707	9
2988	2995	6713	6714	9
2985	2986	2987	2988	9
2985	2990	2989	2988	9
2988	2989	2990	2994	9
2987	2986	2997	2998	9
2987	2986	2997	2999	9
2987	2986	2985	2990	9
2987	2986	2985	2993	9
2987	2988	2995	2996	9
2987	2988	2995	6713	9
2987	2988	2989	2990	9
2987	2988	2989	2992	9
2985	2986	2997	2998	9
2985	2986	2997	2999	9
2985	2986	2987	2991	9
2985	2990	2989	2992	9
2989	2988	2995	2996	9
2989	2988	2995	6713	9
2989	2988	2987	2991	9
2989	2990	2985	2993	9
2993	2985	2990	2994	9
2992	2989	2990	2994	9
2996	2995	6713	6707	9
2996	2995	6713	6714	9
6958	6957	6956	6967	9
6961	6957	6956	6967	9
6960	6955	6956	6967	9
6963	6955	6956	6967	9
6967	11151	11145	11146	9
6967	11151	11145	11148	9
6956	6957	6958	6965	9
6961	6957	6958	6965	9
6960	6959	6958	6965	9
6962	6959	6958	6965	9
6965	6980	6973	6972	9
6965	6980	6973	6974	9
6956	6967	11151	11145	9
6956	6967	11151	11152	9
6956	6957	6958	6959	9
6956	6955	6960	6959	9
6956	6955	6960	6964	9
6958	6965	6980	6973	9
6958	6965	6980	6982	9
6955	6956	6957	6958	9
6955	6960	6959	6958	9
6958	6959	6960	6964	9
6957	6956	6967	6968	9
6957	6956	6967	11151	9
6957	6956	6955	6960	9
6957	6956	6955	6963	9
6957	6958	6965	6966	9
6957	6958	6965	6980	9
6957	6958	6959	6960	9
6957	6958	6959	6962	9
6955	6956	6967	6968	9
6955	6956	6967	11151	9
6955	6956	6957	6961	9
6955	6960	6959	6962	9
6959	6958	6965	6966	9
6959	6958	6965	6980	9
6959	6958	6957	6961	9
6959	6960	6955	6963	9
6963	6955	6960	6964	9
6962	6959	6960	6964	9
6968	6967	11151	11145	9
6968	6967	11151	11152	9
6966	6965	6980	6973	9
6966	6965	6980	6982	9
1284	1283	1282	1293	9
1287	1283	1282	1293	9
1286	1281	1282	1293	9
1289	1281	1282	1293	9
1293	7490	7483	7482	9
1293	7490	7483	7484	9
1282	1283	1284	1291	9
1287	1283	1284	1291	9
1286	1285	1284	1291	9
1288	1285	1284	1291	9
1265	1264	1270	1291	9
1267	1264	1270	1291	9
1282	1293	7490	7483	9
1282	1293	7490	7492	9
1282	1283	1284	1285	9
1282	1281	1286	1285	9
1282	1281	1286	1290	9
1264	1270	1291	1284	9
1271	1270	1291	1284	9
1281	1282	1283	1284	9
1281	1286	1285	1284	9
1284	1285	1286	1290	9
1283	1282	1293	1294	9
1283	1282	1293	7490	9
1283	1282	1281	1286	9
1283	1282	1281	1289	9
1283	1284	1291	1292	9
1270	1291	1284	1283	9
1283	1284	1285	1286	9
1283	1284	1285	1288	9
1281	1282	1293	1294	9
1281	1282	1293	7490	9
1281	1282	1283	1287	9
1281	1286	1285	1288	9
1285	1284	1291	1292	9
1270	1291	1284	1285	9
1285	1284	1283	1287	9
1285	1286	1281	1289	9
1289	1281	1286	1290	9
1288	1285	1286	1290	9
1294	1293	7490	7483	9
1294	1293	7490	7492	9
1264	1270	1291	1292	9
1271	1270	1291	1292	9
2568	2567	2566	2577	9
2571	2567	2566	2577	9
2570	2565	2566	2577	9
2573	2565	2566	2577	9
789	788	795	2577	9
787	788	795	2577	9
2566	2567	2568	2575	9
2571	2567	2568	2575	9
2570	2569	2568	2575	9
2572	2569	2568	2575	9
2551	2548	2554	2575	9
2549	2548	2554	2575	9
788	795	2577	2566	9
797	795	2577	2566	9
2566	2567	2568	2569	9
2566	2565	2570	2569	9
2566	2565	2570	2574	9
2548	2554	2575	2568	9
2555	2554	2575	2568	9
2565	2566	2567	2568	9
2565	2570	2569	2568	9
2568	2569	2570	2574	9
2567	2566	2577	2578	9
795	2577	2566	2567	9
2567	2566	2565	2570	9
2567	2566	2565	2573	9
2567	2568	2575	2576	9
2554	2575	2568	2567	9
2567	2568	2569	2570	9
2567	2568	2569	2572	9
2565	2566	2577	2578	9
795	2577	2566	2565	9
2565	2566	2567	2571	9
2565	2570	2569	2572	9
2569	2568	2575	2576	9
2554	2575	2568	2569	9
2569	2568	2567	2571	9
2569	2570	2565	2573	9
2573	2565	2570	2574	9
2572	2569	2570	2574	9
788	795	2577	2578	9
797	795	2577	2578	9
2548	2554	2575	2576	9
2555	2554	2575	2576	9
6374	6375	6376	6383	9
6379	6375	6376	6383	9
6378	6377	6376	6383	9
6380	6377	6376	6383	9
6383	7738	7731	7732	9
6383	7738	7731	7730	9
6376	6375	6374	6385	9
6379	6375	6374	6385	9
6378	6373	6374	6385	9
6381	6373	6374	6385	9
6385	6393	6387	6390	9
6385	6393	6387	6388	9
6376	6383	7738	7731	9
6376	6383	7738	7740	9
6376	6375	6374	6373	9
6376	6377	6378	6373	9
6376	6377	6378	6382	9
6374	6385	6393	6387	9
6374	6385	6393	6394	9
6377	6376	6375	6374	9
6377	6378	6373	6374	9
6374	6373	6378	6382	9
6375	6376	6383	6384	9
6375	6376	6383	7738	9
6375	6376	6377	6378	9
6375	6376	6377	6380	9
6375	6374	6385	6386	9
6375	6374	6385	6393	9
6375	6374	6373	6378	9
6375	6374	6373	6381	9
6377	6376	6383	6384	9
6377	6376	6383	7738	9
6377	6376	6375	6379	9
6377	6378	6373	6381	9
6373	6374	6385	6386	9
6373	6374	6385	6393	9
6373	6374	6375	6379	9
6373	6378	6377	6380	9
6380	6377	6378	6382	9
6381	6373	6378	6382	9
6384	6383	7738	7731	9
6384	6383	7738	7740	9
6386	6385	6393	6387	9
6386	6385	6393	6394	9
11220	11219	11218	11229	9
11223	11219	11218	11229	9
11222	11217	11218	11229	9
11225	11217	11218	11229	9
11229	7461	7454	7453	9
11229	7461	7454	7455	9
11218	11219	11220	11227	9
11223	11219	11220	11227	9
11222	11221	11220	11227	9
11224	11221	11220	11227	9
11227	3865	3858	3857	9
11227	3865	3858	3859	9
11218	11229	7461	7454	9
11218	11229	7461	7463	9
11218	11219	11220	11221	9
11218	11217	11222	11221	9
11218	11217	11222	11226	9
11220	11227	3865	3858	9
11220	11227	3865	3867	9
11217	11218	11219	11220	9
11217	11222	11221	11220	9
11220	11221	11222	11226	9
11219	11218	11229	11230	9
11219	11218	11229	7461	9
11219	11218	11217	11222	9
11219	11218	11217	11225	9
11219	11220	11227	11228	9
11219	11220	11227	3865	9
11219	11220	11221	11222	9
11219	11220	11221	11224	9
11217	11218	11229	11230	9
11217	11218	11229	7461	9
11217	11218	11219	11223	9
11217	11222	11221	11224	9
11221	11220	11227	11228	9
11221	11220	11227	3865	9
11221	11220	11219	11223	9
11221	11222	11217	11225	9
11225	11217	11222	11226	9
11224	11221	11222	11226	9
11230	11229	7461	7454	9
11230	11229	7461	7463	9
11228	11227	3865	3858	9
11228	11227	3865	3867	9
10342	10341	10340	10351	9
10345	10341	10340	10351	9
10344	10339	10340	10351	9
10347	10339	10340	10351	9
10351	4316	4306	4309	9
10351	4316	4306	4305	9
10340	10341	10342	10349	9
10345	10341	10342	10349	9
10344	10343	10342	10349	9
10346	10343	10342	10349	9
10349	10359	10353	10354	9
10349	10359	10353	10356	9
10340	10351	4316	4306	9
10340	10351	4316	4318	9
10340	10341	10342	10343	9
10340	10339	10344	10343	9
10340	10339	10344	10348	9
10342	10349	10359	10353	9
10342	10349	10359	10360	9
10339	10340	10341	10342	9
10339	10344	10343	10342	9
10342	10343	10344	10348	9
10341	10340	10351	10352	9
10341	10340	10351	4316	9
10341	10340	10339	10344	9
10341	10340	10339	10347	9
10341	10342	10349	10350	9
10341	10342	10349	10359	9
10341	10342	10343	10344	9
10341	10342	10343	10346	9
10339	10340	10351	10352	9
10339	10340	10351	4316	9
10339	10340	10341	10345	9
10339	10344	10343	10346	9
10343	10342	10349	10350	9
10343	10342	10349	10359	9
10343	10342	10341	10345	9
10343	10344	10339	10347	9
10347	10339	10344	10348	9
10346	10343	10344	10348	9
10352	10351	4316	4306	9
10352	10351	4316	4318	9
10350	10349	10359	10353	9
10350	10349	10359	10360	9
3811	3812	3813	3820	9
3816	3812	3813	3820	9
3815	3814	3813	3820	9
3817	3814	3813	3820	9
756	757	764	3820	9
758	757	764	3820	9
3813	3812	3811	3822	9
3816	3812	3811	3822	9
3815	3810	3811	3822	9
3818	3810	3811	3822	9
757	764	3820	3813	9
766	764	3820	3813	9
3810	3811	3812	3813	9
3810	3815	3814	3813	9
3813	3814	3815	3819	9
3811	3812	3813	3814	9
3811	3810	3815	3814	9
3811	3810	3815	3819	9
3812	3813	3820	3821	9
764	3820	3813	3812	9
3812	3813	3814	3815	9
3812	3813	3814	3817	9
3812	3811	3822	3824	9
3812	3811	3822	3823	9
3812	3811	3810	3815	9
3812	3811	3810	3818	9
3814	3813	3820	3821	9
764	3820	3813	3814	9
3814	3813	3812	3816	9
3814	3815	3810	3818	9
3810	3811	3822	3824	9
3810	3811	3822	3823	9
3810	3811	3812	3816	9
3810	3815	3814	3817	9
3817	3814	3815	3819	9
3818	3810	3815	3819	9
757	764	3820	3821	9
766	764	3820	3821	9
11262	11261	11260	11271	9
11265	11261	11260	11271	9
11264	11259	11260	11271	9
11267	11259	11260	11271	9
11271	6792	6782	6781	9
11271	6792	6782	6785	9
11260	11261	11262	11269	9
11265	11261	11262	11269	9
11264	11263	11262	11269	9
11266	11263	11262	11269	9
11269	4011	4001	4004	9
11269	4011	4001	4000	9
11260	11271	6792	6782	9
11260	11271	6792	6794	9
11260	11261	11262	11263	9
11260	11259	11264	11263	9
11260	11259	11264	11268	9
11262	11269	4011	4001	9
11262	11269	4011	4013	9
11259	11260	11261	11262	9
11259	11264	11263	11262	9
11262	11263	11264	11268	9
11261	11260	11271	11272	9
11261	11260	11271	6792	9
11261	11260	11259	11264	9
11261	11260	11259	11267	9
11261	11262	11269	11270	9
11261	11262	11269	4011	9
11261	11262	11263	11264	9
11261	11262	11263	11266	9
11259	11260	11271	11272	9
11259	11260	11271	6792	9
11259	11260	11261	11265	9
11259	11264	11263	11266	9
11263	11262	11269	11270	9
11263	11262	11269	4011	9
11263	11262	11261	11265	9
11263	11264	11259	11267	9
11267	11259	11264	11268	9
11266	11263	11264	11268	9
11272	11271	6792	6782	9
11272	11271	6792	6794	9
11270	11269	4011	4001	9
11270	11269	4011	4013	9
10563	10562	10561	10572	9
10566	10562	10561	10572	9
10565	10560	10561	10572	9
10568	10560	10561	10572	9
10572	11048	11042	11045	9
10572	11048	11042	11043	9
10561	10562	10563	10570	9
10566	10562	10563	10570	9
10565	10564	10563	10570	9
10567	10564	10563	10570	9
10570	10580	10574	10575	9
10570	10580	10574	10577	9
10561	10572	11048	11042	9
10561	10572	11048	11049	9
10561	10562	10563	10564	9
10561	10560	10565	10564	9
10561	10560	10565	10569	9
10563	10570	10580	10574	9
10563	10570	10580	10581	9
10560	10561	10562	10563	9
10560	10565	10564	10563	9
10563	10564	10565	10569	9
10562	10561	10572	10573	9
10562	10561	10572	11048	9
10562	10561	10560	10565	9
10562	10561	10560	10568	9
10562	10563	10570	10571	9
10562	10563	10570	10580	9
10562	10563	10564	10565	9
10562	10563	10564	10567	9
10560	10561	10572	10573	9
10560	10561	10572	11048	9
10560	10561	10562	10566	9
10560	10565	10564	10567	9
10564	10563	10570	10571	9
10564	10563	10570	10580	9
10564	10563	10562	10566	9
10564	10565	10560	10568	9
10568	10560	10565	10569	9
10567	10564	10565	10569	9
10573	10572	11048	11042	9
10573	10572	11048	11049	9
10571	10570	10580	10574	9
10571	10570	10580	10581	9
7104	7103	7102	7113	9
7107	7103	7102	7113	9
7106	7101	7102	7113	9
7109	7101	7102	7113	9
7113	7121	7115	7118	9
7113	7121	7115	7116	9
7102	7103	7104	7111	9
7107	7103	7104	7111	9
7106	7105	7104	7111	9
7108	7105	7104	7111	9
7111	5916	5909	5908	9
7111	5916	5909	5910	9
7102	7113	7121	7115	9
7102	7113	7121	7122	9
7102	7103	7104	7105	9
7102	7101	7106	7105	9
7102	7101	7106	7110	9
7104	7111	5916	5909	9
7104	7111	5916	5918	9
7101	7102	7103	7104	9
7101	7106	7105	7104	9
7104	7105	7106	7110	9
7103	7102	7113	7114	9
7103	7102	7113	7121	9
7103	7102	7101	7106	9
7103	7102	7101	7109	9
7103	7104	7111	7112	9
7103	7104	7111	5916	9
7103	7104	7105	7106	9
7103	7104	7105	7108	9
7101	7102	7113	7114	9
7101	7102	7113	7121	9
7101	7102	7103	7107	9
7101	7106	7105	7108	9
7105	7104	7111	7112	9
7105	7104	7111	5916	9
7105	7104	7103	7107	9
7105	7106	7101	7109	9
7109	7101	7106	7110	9
7108	7105	7106	7110	9
7114	7113	7121	7115	9
7114	7113	7121	7122	9
7112	7111	5916	5909	9
7112	7111	5916	5918	9
1823	1822	1821	1832	9
1826	1822	1821	1832	9
1825	1820	1821	1832	9
1828	1820	1821	1832	9
1806	1807	1814	1832	9
1808	1807	1814	1832	9
1821	1822	1823	1830	9
1826	1822	1823	1830	9
1825	1824	1823	1830	9
1827	1824	1823	1830	9
294	293	300	1830	9
292	293	300	1830	9
1807	1814	1832	1821	9
1816	1814	1832	1821	9
1821	1822	1823	1824	9
1821	1820	1825	1824	9
1821	1820	1825	1829	9
293	300	1830	1823	9
302	300	1830	1823	9
1820	1821	1822	1823	9
1820	1825	1824	1823	9
1823	1824	1825	1829	9
1822	1821	1832	1833	9
1814	1832	1821	1822	9
1822	1821	1820	1825	9
1822	1821	1820	1828	9
1822	1823	1830	1831	9
300	1830	1823	1822	9
1822	1823	1824	1825	9
1822	1823	1824	1827	9
1820	1821	1832	1833	9
1814	1832	1821	1820	9
1820	1821	1822	1826	9
1820	1825	1824	1827	9
1824	1823	1830	1831	9
300	1830	1823	1824	9
1824	1823	1822	1826	9
1824	1825	1820	1828	9
1828	1820	1825	1829	9
1827	1824	1825	1829	9
1807	1814	1832	1833	9
1816	1814	1832	1833	9
293	300	1830	1831	9
302	300	1830	1831	9
12830	12829	12828	12839	9
12833	12829	12828	12839	9
12832	12827	12828	12839	9
12835	12827	12828	12839	9
12839	6995	6988	6987	9
12839	6995	6988	6989	9
12828	12829	12830	12837	9
12833	12829	12830	12837	9
12832	12831	12830	12837	9
12834	12831	12830	12837	9
12837	10701	10694	10695	9
12837	10701	10694	10693	9
12828	12839	6995	6988	9
12828	12839	6995	6997	9
12828	12829	12830	12831	9
12828	12827	12832	12831	9
12828	12827	12832	12836	9
12830	12837	10701	10694	9
12830	12837	10701	10703	9
12827	12828	12829	12830	9
12827	12832	12831	12830	9
12830	12831	12832	12836	9
12829	12828	12839	12840	9
12829	12828	12839	6995	9
12829	12828	12827	12832	9
12829	12828	12827	12835	9
12829	12830	12837	12838	9
12829	12830	12837	10701	9
12829	12830	12831	12832	9
12829	12830	12831	12834	9
12827	12828	12839	12840	9
12827	12828	12839	6995	9
12827	12828	12829	12833	9
12827	12832	12831	12834	9
12831	12830	12837	12838	9
12831	12830	12837	10701	9
12831	12830	12829	12833	9
12831	12832	12827	12835	9
12835	12827	12832	12836	9
12834	12831	12832	12836	9
12840	12839	6995	6988	9
12840	12839	6995	6997	9
12838	12837	10701	10694	9
12838	12837	10701	10703	9
3378	3377	3376	3387	9
3381	3377	3376	3387	9
3380	3375	3376	3387	9
3383	3375	3376	3387	9
3376	3377	3378	3385	9
3381	3377	3378	3385	9
3380	3379	3378	3385	9
3382	3379	3378	3385	9
3385	9112	9105	9106	9
3385	9112	9105	9104	9
3376	3377	3378	3379	9
3376	3375	3380	3379	9
3376	3375	3380	3384	9
3378	3385	9112	9105	9
3378	3385	9112	9114	9
3375	3376	3377	3378	9
3375	3380	3379	3378	9
3378	3379	3380	3384	9
3377	3376	3387	3388	9
3377	3376	3387	3389	9
3377	3376	3375	3380	9
3377	3376	3375	3383	9
3377	3378	3385	3386	9
3377	3378	3385	9112	9
3377	3378	3379	3380	9
3377	3378	3379	3382	9
3375	3376	3387	3388	9
3375	3376	3387	3389	9
3375	3376	3377	3381	9
3375	3380	3379	3382	9
3379	3378	3385	3386	9
3379	3378	3385	9112	9
3379	3378	3377	3381	9
3379	3380	3375	3383	9
3383	3375	3380	3384	9
3382	3379	3380	3384	9
3386	3385	9112	9105	9
3386	3385	9112	9114	9
13530	13529	13528	13539	9
13533	13529	13528	13539	9
13532	13527	13528	13539	9
13535	13527	13528	13539	9
13539	9024	9017	9018	9
13539	9024	9017	9016	9
13528	13529	13530	13537	9
13533	13529	13530	13537	9
13532	13531	13530	13537	9
13534	13531	13530	13537	9
13537	10834	10824	10823	9
13537	10834	10824	10827	9
13528	13539	9024	9017	9
13528	13539	9024	9026	9
13528	13529	13530	13531	9
13528	13527	13532	13531	9
13528	13527	13532	13536	9
13530	13537	10834	10824	9
13530	13537	10834	10836	9
13527	13528	13529	13530	9
13527	13532	13531	13530	9
13530	13531	13532	13536	9
13529	13528	13539	13540	9
13529	13528	13539	9024	9
13529	13528	13527	13532	9
13529	13528	13527	13535	9
13529	13530	13537	13538	9
13529	13530	13537	10834	9
13529	13530	13531	13532	9
13529	13530	13531	13534	9
13527	13528	13539	13540	9
13527	13528	13539	9024	9
13527	13528	13529	13533	9
13527	13532	13531	13534	9
13531	13530	13537	13538	9
13531	13530	13537	10834	9
13531	13530	13529	13533	9
13531	13532	13527	13535	9
13535	13527	13532	13536	9
13534	13531	13532	13536	9
13540	13539	9024	9017	9
13540	13539	9024	9026	9
13538	13537	10834	10824	9
13538	13537	10834	10836	9
11934	11933	11932	11943	9
11937	11933	11932	11943	9
11936	11931	11932	11943	9
11939	11931	11932	11943	9
2023	2024	2031	11943	9
2025	2024	2031	11943	9
11932	11933	11934	11941	9
11937	11933	11934	11941	9
11936	11935	11934	11941	9
11938	11935	11934	11941	9
11941	5159	5149	5152	9
11941	5159	5149	5148	9
2024	2031	11943	11932	9
2033	2031	11943	11932	9
11932	11933	11934	11935	9
11932	11931	11936	11935	9
11932	11931	11936	11940	9
11934	11941	5159	5149	9
11934	11941	5159	5161	9
11931	11932	11933	11934	9
11931	11936	11935	11934	9
11934	11935	11936	11940	9
11933	11932	11943	11944	9
2031	11943	11932	11933	9
11933	11932	11931	11936	9
11933	11932	11931	11939	9
11933	11934	11941	11942	9
11933	11934	11941	5159	9
11933	11934	11935	11936	9
11933	11934	11935	11938	9
11931	11932	11943	11944	9
2031	11943	11932	11931	9
11931	11932	11933	11937	9
11931	11936	11935	11938	9
11935	11934	11941	11942	9
11935	11934	11941	5159	9
11935	11934	11933	11937	9
11935	11936	11931	11939	9
11939	11931	11936	11940	9
11938	11935	11936	11940	9
2024	2031	11943	11944	9
2033	2031	11943	11944	9
11942	11941	5159	5149	9
11942	11941	5159	5161	9
11248	11247	11246	11257	9
11251	11247	11246	11257	9
11250	11245	11246	11257	9
11253	11245	11246	11257	9
11257	3924	3914	3917	9
11257	3924	3914	3913	9
11246	11247	11248	11255	9
11251	11247	11248	11255	9
11250	11249	11248	11255	9
11252	11249	11248	11255	9
2084	2085	2092	11255	9
2086	2085	2092	11255	9
11246	11257	3924	3914	9
11246	11257	3924	3926	9
11246	11247	11248	11249	9
11246	11245	11250	11249	9
11246	11245	11250	11254	9
2085	2092	11255	11248	9
2094	2092	11255	11248	9
11245	11246	11247	11248	9
11245	11250	11249	11248	9
11248	11249	11250	11254	9
11247	11246	11257	11258	9
11247	11246	11257	3924	9
11247	11246	11245	11250	9
11247	11246	11245	11253	9
11247	11248	11255	11256	9
2092	11255	11248	11247	9
11247	11248	11249	11250	9
11247	11248	11249	11252	9
11245	11246	11257	11258	9
11245	11246	11257	3924	9
11245	11246	11247	11251	9
11245	11250	11249	11252	9
11249	11248	11255	11256	9
2092	11255	11248	11249	9
11249	11248	11247	11251	9
11249	11250	11245	11253	9
11253	11245	11250	11254	9
11252	11249	11250	11254	9
11258	11257	3924	3914	9
11258	11257	3924	3926	9
2085	2092	11255	11256	9
2094	2092	11255	11256	9
3603	3602	3601	3612	9
3606	3602	3601	3612	9
3605	3600	3601	3612	9
3608	3600	3601	3612	9
3601	3602	3603	3610	9
3606	3602	3603	3610	9
3605	3604	3603	3610	9
3607	3604	3603	3610	9
3610	10740	10734	10735	9
3610	10740	10734	10737	9
3601	3602	3603	3604	9
3601	3600	3605	3604	9
3601	3600	3605	3609	9
3603	3610	10740	10734	9
3603	3610	10740	10741	9
3600	3601	3602	3603	9
3600	3605	3604	3603	9
3603	3604	3605	3609	9
3602	3601	3612	3614	9
3602	3601	3612	3613	9
3602	3601	3600	3605	9
3602	3601	3600	3608	9
3602	3603	3610	3611	9
3602	3603	3610	10740	9
3602	3603	3604	3605	9
3602	3603	3604	3607	9
3600	3601	3612	3614	9
3600	3601	3612	3613	9
3600	3601	3602	3606	9
3600	3605	3604	3607	9
3604	3603	3610	3611	9
3604	3603	3610	10740	9
3604	3603	3602	3606	9
3604	3605	3600	3608	9
3608	3600	3605	3609	9
3607	3604	3605	3609	9
3611	3610	10740	10734	9
3611	3610	10740	10741	9
307	308	309	316	9
312	308	309	316	9
311	310	309	316	9
313	310	309	316	9
316	7710	7700	7703	9
316	7710	7700	7699	9
309	308	307	318	9
312	308	307	318	9
311	306	307	318	9
314	306	307	318	9
292	289	295	318	9
290	289	295	318	9
309	316	7710	7700	9
309	316	7710	7712	9
309	308	307	306	9
309	310	311	306	9
309	310	311	315	9
289	295	318	307	9
296	295	318	307	9
310	309	308	307	9
310	311	306	307	9
307	306	311	315	9
308	309	316	317	9
308	309	316	7710	9
308	309	310	311	9
308	309	310	313	9
308	307	318	319	9
295	318	307	308	9
308	307	306	311	9
308	307	306	314	9
310	309	316	317	9
310	309	316	7710	9
310	309	308	312	9
310	311	306	314	9
306	307	318	319	9
295	318	307	306	9
306	307	308	312	9
306	311	310	313	9
313	310	311	315	9
314	306	311	315	9
317	316	7710	7700	9
317	316	7710	7712	9
289	295	318	319	9
296	295	318	319	9
2599	2598	2597	2608	9
2602	2598	2597	2608	9
2601	2596	2597	2608	9
2604	2596	2597	2608	9
2580	2579	2585	2608	9
2582	2579	2585	2608	9
2597	2598	2599	2606	9
2602	2598	2599	2606	9
2601	2600	2599	2606	9
2603	2600	2599	2606	9
416	417	424	2606	9
418	417	424	2606	9
2579	2585	2608	2597	9
2586	2585	2608	2597	9
2597	2598	2599	2600	9
2597	2596	2601	2600	9
2597	2596	2601	2605	9
417	424	2606	2599	9
426	424	2606	2599	9
2596	2597	2598	2599	9
2596	2601	2600	2599	9
2599	2600	2601	2605	9
2598	2597	2608	2609	9
2585	2608	2597	2598	9
2598	2597	2596	2601	9
2598	2597	2596	2604	9
2598	2599	2606	2607	9
424	2606	2599	2598	9
2598	2599	2600	2601	9
2598	2599	2600	2603	9
2596	2597	2608	2609	9
2585	2608	2597	2596	9
2596	2597	2598	2602	9
2596	2601	2600	2603	9
2600	2599	2606	2607	9
424	2606	2599	2600	9
2600	2599	2598	2602	9
2600	2601	2596	2604	9
2604	2596	2601	2605	9
2603	2600	2601	2605	9
2579	2585	2608	2609	9
2586	2585	2608	2609	9
417	424	2606	2607	9
426	424	2606	2607	9
5543	5542	5541	5552	9
5546	5542	5541	5552	9
5545	5540	5541	5552	9
5548	5540	5541	5552	9
5552	5560	5554	5557	9
5552	5560	5554	5555	9
5541	5542	5543	5550	9
5546	5542	5543	5550	9
5545	5544	5543	5550	9
5547	5544	5543	5550	9
5550	10872	10866	10869	9
5550	10872	10866	10867	9
5541	5552	5560	5554	9
5541	5552	5560	5561	9
5541	5542	5543	5544	9
5541	5540	5545	5544	9
5541	5540	5545	5549	9
5543	5550	10872	10866	9
5543	5550	10872	10873	9
5540	5541	5542	5543	9
5540	5545	5544	5543	9
5543	5544	5545	5549	9
5542	5541	5552	5553	9
5542	5541	5552	5560	9
5542	5541	5540	5545	9
5542	5541	5540	5548	9
5542	5543	5550	5551	9
5542	5543	5550	10872	9
5542	5543	5544	5545	9
5542	5543	5544	5547	9
5540	5541	5552	5553	9
5540	5541	5552	5560	9
5540	5541	5542	5546	9
5540	5545	5544	5547	9
5544	5543	5550	5551	9
5544	5543	5550	10872	9
5544	5543	5542	5546	9
5544	5545	5540	5548	9
5548	5540	5545	5549	9
5547	5544	5545	5549	9
5553	5552	5560	5554	9
5553	5552	5560	5561	9
5551	5550	10872	10866	9
5551	5550	10872	10873	9
4322	4321	4320	4331	9
4325	4321	4320	4331	9
4324	4319	4320	4331	9
4327	4319	4320	4331	9
4331	4339	4333	4336	9
4331	4339	4333	4334	9
4320	4321	4322	4329	9
4325	4321	4322	4329	9
4324	4323	4322	4329	9
4326	4323	4322	4329	9
4329	8639	8633	8634	9
4329	8639	8633	8636	9
4320	4331	4339	4333	9
4320	4331	4339	4340	9
4320	4321	4322	4323	9
4320	4319	4324	4323	9
4320	4319	4324	4328	9
4322	4329	8639	8633	9
4322	4329	8639	8640	9
4319	4320	4321	4322	9
4319	4324	4323	4322	9
4322	4323	4324	4328	9
4321	4320	4331	4332	9
4321	4320	4331	4339	9
4321	4320	4319	4324	9
4321	4320	4319	4327	9
4321	4322	4329	4330	9
4321	4322	4329	8639	9
4321	4322	4323	4324	9
4321	4322	4323	4326	9
4319	4320	4331	4332	9
4319	4320	4331	4339	9
4319	4320	4321	4325	9
4319	4324	4323	4326	9
4323	4322	4329	4330	9
4323	4322	4329	8639	9
4323	4322	4321	4325	9
4323	4324	4319	4327	9
4327	4319	4324	4328	9
4326	4323	4324	4328	9
4332	4331	4339	4333	9
4332	4331	4339	4340	9
4330	4329	8639	8633	9
4330	4329	8639	8640	9
13838	13837	13836	13847	9
13841	13837	13836	13847	9
13840	13835	13836	13847	9
13843	13835	13836	13847	9
1300	1301	1303	13847	9
1302	1301	1303	13847	9
13836	13837	13838	13845	9
13841	13837	13838	13845	9
13840	13839	13838	13845	9
13842	13839	13838	13845	9
1651	1652	1659	13845	9
1653	1652	1659	13845	9
1301	1303	13847	13836	9
1304	1303	13847	13836	9
13836	13837	13838	13839	9
13836	13835	13840	13839	9
13836	13835	13840	13844	9
1652	1659	13845	13838	9
1661	1659	13845	13838	9
13835	13836	13837	13838	9
13835	13840	13839	13838	9
13838	13839	13840	13844	9
13837	13836	13847	13848	9
1303	13847	13836	13837	9
13837	13836	13835	13840	9
13837	13836	13835	13843	9
13837	13838	13845	13846	9
1659	13845	13838	13837	9
13837	13838	13839	13840	9
13837	13838	13839	13842	9
13835	13836	13847	13848	9
1303	13847	13836	13835	9
13835	13836	13837	13841	9
13835	13840	13839	13842	9
13839	13838	13845	13846	9
1659	13845	13838	13839	9
13839	13838	13837	13841	9
13839	13840	13835	13843	9
13843	13835	13840	13844	9
13842	13839	13840	13844	9
1301	1303	13847	13848	9
1304	1303	13847	13848	9
1652	1659	13845	13846	9
1661	1659	13845	13846	9
3288	3287	3286	3297	9
3291	3287	3286	3297	9
3290	3285	3286	3297	9
3293	3285	3286	3297	9
3286	3287	3288	3295	9
3291	3287	3288	3295	9
3290	3289	3288	3295	9
3292	3289	3288	3295	9
3295	8908	8898	8897	9
3295	8908	8898	8901	9
3286	3287	3288	3289	9
3286	3285	3290	3289	9
3286	3285	3290	3294	9
3288	3295	8908	8898	9
3288	3295	8908	8910	9
3285	3286	3287	3288	9
3285	3290	3289	3288	9
3288	3289	3290	3294	9
3287	3286	3297	3298	9
3287	3286	3297	3299	9
3287	3286	3285	3290	9
3287	3286	3285	3293	9
3287	3288	3295	3296	9
3287	3288	3295	8908	9
3287	3288	3289	3290	9
3287	3288	3289	3292	9
3285	3286	3297	3298	9
3285	3286	3297	3299	9
3285	3286	3287	3291	9
3285	3290	3289	3292	9
3289	3288	3295	3296	9
3289	3288	3295	8908	9
3289	3288	3287	3291	9
3289	3290	3285	3293	9
3293	3285	3290	3294	9
3292	3289	3290	3294	9
3296	3295	8908	8898	9
3296	3295	8908	8910	9
12536	12535	12534	12545	9
12539	12535	12534	12545	9
12538	12533	12534	12545	9
12541	12533	12534	12545	9
12545	6223	6213	6212	9
12545	6223	6213	6216	9
12534	12535	12536	12543	9
12539	12535	12536	12543	9
12538	12537	12536	12543	9
12540	12537	12536	12543	9
12543	6617	6607	6606	9
12543	6617	6607	6610	9
12534	12545	6223	6213	9
12534	12545	6223	6225	9
12534	12535	12536	12537	9
12534	12533	12538	12537	9
12534	12533	12538	12542	9
12536	12543	6617	6607	9
12536	12543	6617	6619	9
12533	12534	12535	12536	9
12533	12538	12537	12536	9
12536	12537	12538	12542	9
12535	12534	12545	12546	9
12535	12534	12545	6223	9
12535	12534	12533	12538	9
12535	12534	12533	12541	9
12535	12536	12543	12544	9
12535	12536	12543	6617	9
12535	12536	12537	12538	9
12535	12536	12537	12540	9
12533	12534	12545	12546	9
12533	12534	12545	6223	9
12533	12534	12535	12539	9
12533	12538	12537	12540	9
12537	12536	12543	12544	9
12537	12536	12543	6617	9
12537	12536	12535	12539	9
12537	12538	12533	12541	9
12541	12533	12538	12542	9
12540	12537	12538	12542	9
12546	12545	6223	6213	9
12546	12545	6223	6225	9
12544	12543	6617	6607	9
12544	12543	6617	6619	9
12312	12311	12310	12321	9
12315	12311	12310	12321	9
12314	12309	12310	12321	9
12317	12309	12310	12321	9
12321	7025	7015	7018	9
12321	7025	7015	7014	9
12310	12311	12312	12319	9
12315	12311	12312	12319	9
12314	12313	12312	12319	9
12316	12313	12312	12319	9
12319	5815	5805	5808	9
12319	5815	5805	5804	9
12310	12321	7025	7015	9
12310	12321	7025	7027	9
12310	12311	12312	12313	9
12310	12309	12314	12313	9
12310	12309	12314	12318	9
12312	12319	5815	5805	9
12312	12319	5815	5817	9
12309	12310	12311	12312	9
12309	12314	12313	12312	9
12312	12313	12314	12318	9
12311	12310	12321	12322	9
12311	12310	12321	7025	9
12311	12310	12309	12314	9
12311	12310	12309	12317	9
12311	12312	12319	12320	9
12311	12312	12319	5815	9
12311	12312	12313	12314	9
12311	12312	12313	12316	9
12309	12310	12321	12322	9
12309	12310	12321	7025	9
12309	12310	12311	12315	9
12309	12314	12313	12316	9
12313	12312	12319	12320	9
12313	12312	12319	5815	9
12313	12312	12311	12315	9
12313	12314	12309	12317	9
12317	12309	12314	12318	9
12316	12313	12314	12318	9
12322	12321	7025	7015	9
12322	12321	7025	7027	9
12320	12319	5815	5805	9
12320	12319	5815	5817	9
11388	11387	11386	11397	9
11391	11387	11386	11397	9
11390	11385	11386	11397	9
11393	11385	11386	11397	9
11397	4213	4206	4207	9
11397	4213	4206	4205	9
11386	11387	11388	11395	9
11391	11387	11388	11395	9
11390	11389	11388	11395	9
11392	11389	11388	11395	9
11395	10410	10400	10403	9
11395	10410	10400	10399	9
11386	11397	4213	4206	9
11386	11397	4213	4215	9
11386	11387	11388	11389	9
11386	11385	11390	11389	9
11386	11385	11390	11394	9
11388	11395	10410	10400	9
11388	11395	10410	10412	9
11385	11386	11387	11388	9
11385	11390	11389	11388	9
11388	11389	11390	11394	9
11387	11386	11397	11398	9
11387	11386	11397	4213	9
11387	11386	11385	11390	9
11387	11386	11385	11393	9
11387	11388	11395	11396	9
11387	11388	11395	10410	9
11387	11388	11389	11390	9
11387	11388	11389	11392	9
11385	11386	11397	11398	9
11385	11386	11397	4213	9
11385	11386	11387	11391	9
11385	11390	11389	11392	9
11389	11388	11395	11396	9
11389	11388	11395	10410	9
11389	11388	11387	11391	9
11389	11390	11385	11393	9
11393	11385	11390	11394	9
11392	11389	11390	11394	9
11398	11397	4213	4206	9
11398	11397	4213	4215	9
11396	11395	10410	10400	9
11396	11395	10410	10412	9
5281	5280	5279	5290	9
5284	5280	5279	5290	9
5283	5278	5279	5290	9
5286	5278	5279	5290	9
5290	5298	5292	5293	9
5290	5298	5292	5295	9
5279	5280	5281	5288	9
5284	5280	5281	5288	9
5283	5282	5281	5288	9
5285	5282	5281	5288	9
5288	7127	7117	7120	9
5288	7127	7117	7116	9
5279	5290	5298	5292	9
5279	5290	5298	5299	9
5279	5280	5281	5282	9
5279	5278	5283	5282	9
5279	5278	5283	5287	9
5281	5288	7127	7117	9
5281	5288	7127	7129	9
5278	5279	5280	5281	9
5278	5283	5282	5281	9
5281	5282	5283	5287	9
5280	5279	5290	5291	9
5280	5279	5290	5298	9
5280	5279	5278	5283	9
5280	5279	5278	5286	9
5280	5281	5288	5289	9
5280	5281	5288	7127	9
5280	5281	5282	5283	9
5280	5281	5282	5285	9
5278	5279	5290	5291	9
5278	5279	5290	5298	9
5278	5279	5280	5284	9
5278	5283	5282	5285	9
5282	5281	5288	5289	9
5282	5281	5288	7127	9
5282	5281	5280	5284	9
5282	5283	5278	5286	9
5286	5278	5283	5287	9
5285	5282	5283	5287	9
5291	5290	5298	5292	9
5291	5290	5298	5299	9
5289	5288	7127	7117	9
5289	5288	7127	7129	9
1424	1423	1422	1433	9
1427	1423	1422	1433	9
1426	1421	1422	1433	9
1429	1421	1422	1433	9
1407	1404	1410	1433	9
1405	1404	1410	1433	9
1422	1423	1424	1431	9
1427	1423	1424	1431	9
1426	1425	1424	1431	9
1428	1425	1424	1431	9
1431	8741	8735	8738	9
1431	8741	8735	8736	9
1404	1410	1433	1422	9
1411	1410	1433	1422	9
1422	1423	1424	1425	9
1422	1421	1426	1425	9
1422	1421	1426	1430	9
1424	1431	8741	8735	9
1424	1431	8741	8742	9
1421	1422	1423	1424	9
1421	1426	1425	1424	9
1424	1425	1426	1430	9
1423	1422	1433	1434	9
1410	1433	1422	1423	9
1423	1422	1421	1426	9
1423	1422	1421	1429	9
1423	1424	1431	1432	9
1423	1424	1431	8741	9
1423	1424	1425	1426	9
1423	1424	1425	1428	9
1421	1422	1433	1434	9
1410	1433	1422	1421	9
1421	1422	1423	1427	9
1421	1426	1425	1428	9
1425	1424	1431	1432	9
1425	1424	1431	8741	9
1425	1424	1423	1427	9
1425	1426	1421	1429	9
1429	1421	1426	1430	9
1428	1425	1426	1430	9
1404	1410	1433	1434	9
1411	1410	1433	1434	9
1432	1431	8741	8735	9
1432	1431	8741	8742	9
12634	12633	12632	12643	9
12637	12633	12632	12643	9
12636	12631	12632	12643	9
12639	12631	12632	12643	9
12643	6821	6811	6810	9
12643	6821	6811	6814	9
12632	12633	12634	12641	9
12637	12633	12634	12641	9
12636	12635	12634	12641	9
12638	12635	12634	12641	9
12641	6399	6389	6392	9
12641	6399	6389	6388	9
12632	12643	6821	6811	9
12632	12643	6821	6823	9
12632	12633	12634	12635	9
12632	12631	12636	12635	9
12632	12631	12636	12640	9
12634	12641	6399	6389	9
12634	12641	6399	6401	9
12631	12632	12633	12634	9
12631	12636	12635	12634	9
12634	12635	12636	12640	9
12633	12632	12643	12644	9
12633	12632	12643	6821	9
12633	12632	12631	12636	9
12633	12632	12631	12639	9
12633	12634	12641	12642	9
12633	12634	12641	6399	9
12633	12634	12635	12636	9
12633	12634	12635	12638	9
12631	12632	12643	12644	9
12631	12632	12643	6821	9
12631	12632	12633	12637	9
12631	12636	12635	12638	9
12635	12634	12641	12642	9
12635	12634	12641	6399	9
12635	12634	12633	12637	9
12635	12636	12631	12639	9
12639	12631	12636	12640	9
12638	12635	12636	12640	9
12644	12643	6821	6811	9
12644	12643	6821	6823	9
12642	12641	6399	6389	9
12642	12641	6399	6401	9
11878	11877	11876	11887	9
11881	11877	11876	11887	9
11880	11875	11876	11887	9
11883	11875	11876	11887	9
11887	8703	8693	8696	9
11887	8703	8693	8692	9
11876	11877	11878	11885	9
11881	11877	11878	11885	9
11880	11879	11878	11885	9
11882	11879	11878	11885	9
11885	5072	5062	5061	9
11885	5072	5062	5065	9
11876	11887	8703	8693	9
11876	11887	8703	8705	9
11876	11877	11878	11879	9
11876	11875	11880	11879	9
11876	11875	11880	11884	9
11878	11885	5072	5062	9
11878	11885	5072	5074	9
11875	11876	11877	11878	9
11875	11880	11879	11878	9
11878	11879	11880	11884	9
11877	11876	11887	11888	9
11877	11876	11887	8703	9
11877	11876	11875	11880	9
11877	11876	11875	11883	9
11877	11878	11885	11886	9
11877	11878	11885	5072	9
11877	11878	11879	11880	9
11877	11878	11879	11882	9
11875	11876	11887	11888	9
11875	11876	11887	8703	9
11875	11876	11877	11881	9
11875	11880	11879	11882	9
11879	11878	11885	11886	9
11879	11878	11885	5072	9
11879	11878	11877	11881	9
11879	11880	11875	11883	9
11883	11875	11880	11884	9
11882	11879	11880	11884	9
11888	11887	8703	8693	9
11888	11887	8703	8705	9
11886	11885	5072	5062	9
11886	11885	5072	5074	9
4903	4902	4901	4912	9
4906	4902	4901	4912	9
4905	4900	4901	4912	9
4908	4900	4901	4912	9
354	355	362	4912	9
356	355	362	4912	9
4901	4902	4903	4910	9
4906	4902	4903	4910	9
4905	4904	4903	4910	9
4907	4904	4903	4910	9
4910	4920	4914	4917	9
4910	4920	4914	4915	9
355	362	4912	4901	9
364	362	4912	4901	9
4901	4902	4903	4904	9
4901	4900	4905	4904	9
4901	4900	4905	4909	9
4903	4910	4920	4914	9
4903	4910	4920	4921	9
4900	4901	4902	4903	9
4900	4905	4904	4903	9
4903	4904	4905	4909	9
4902	4901	4912	4913	9
362	4912	4901	4902	9
4902	4901	4900	4905	9
4902	4901	4900	4908	9
4902	4903	4910	4911	9
4902	4903	4910	4920	9
4902	4903	4904	4905	9
4902	4903	4904	4907	9
4900	4901	4912	4913	9
362	4912	4901	4900	9
4900	4901	4902	4906	9
4900	4905	4904	4907	9
4904	4903	4910	4911	9
4904	4903	4910	4920	9
4904	4903	4902	4906	9
4904	4905	4900	4908	9
4908	4900	4905	4909	9
4907	4904	4905	4909	9
355	362	4912	4913	9
364	362	4912	4913	9
4911	4910	4920	4914	9
4911	4910	4920	4921	9
5951	5952	5953	5960	9
5956	5952	5953	5960	9
5955	5954	5953	5960	9
5957	5954	5953	5960	9
5960	8014	8007	8006	9
5960	8014	8007	8008	9
5953	5952	5951	5962	9
5956	5952	5951	5962	9
5955	5950	5951	5962	9
5958	5950	5951	5962	9
5962	5970	5964	5967	9
5962	5970	5964	5965	9
5953	5960	8014	8007	9
5953	5960	8014	8016	9
5950	5951	5952	5953	9
5950	5955	5954	5953	9
5953	5954	5955	5959	9
5951	5962	5970	5964	9
5951	5962	5970	5971	9
5951	5952	5953	5954	9
5951	5950	5955	5954	9
5951	5950	5955	5959	9
5952	5953	5960	5961	9
5952	5953	5960	8014	9
5952	5953	5954	5955	9
5952	5953	5954	5957	9
5952	5951	5962	5963	9
5952	5951	5962	5970	9
5952	5951	5950	5955	9
5952	5951	5950	5958	9
5954	5953	5960	5961	9
5954	5953	5960	8014	9
5954	5953	5952	5956	9
5954	5955	5950	5958	9
5950	5951	5962	5963	9
5950	5951	5962	5970	9
5950	5951	5952	5956	9
5950	5955	5954	5957	9
5957	5954	5955	5959	9
5958	5950	5955	5959	9
5961	5960	8014	8007	9
5961	5960	8014	8016	9
5963	5962	5970	5964	9
5963	5962	5970	5971	9
11374	11373	11372	11383	9
11377	11373	11372	11383	9
11376	11371	11372	11383	9
11379	11371	11372	11383	9
11383	4954	4947	4948	9
11383	4954	4947	4946	9
11372	11373	11374	11381	9
11377	11373	11374	11381	9
11376	11375	11374	11381	9
11378	11375	11374	11381	9
11381	4185	4175	4174	9
11381	4185	4175	4178	9
11372	11383	4954	4947	9
11372	11383	4954	4956	9
11372	11373	11374	11375	9
11372	11371	11376	11375	9
11372	11371	11376	11380	9
11374	11381	4185	4175	9
11374	11381	4185	4187	9
11371	11372	11373	11374	9
11371	11376	11375	11374	9
11374	11375	11376	11380	9
11373	11372	11383	11384	9
11373	11372	11383	4954	9
11373	11372	11371	11376	9
11373	11372	11371	11379	9
11373	11374	11381	11382	9
11373	11374	11381	4185	9
11373	11374	11375	11376	9
11373	11374	11375	11378	9
11371	11372	11383	11384	9
11371	11372	11383	4954	9
11371	11372	11373	11377	9
11371	11376	11375	11378	9
11375	11374	11381	11382	9
11375	11374	11381	4185	9
11375	11374	11373	11377	9
11375	11376	11371	11379	9
11379	11371	11376	11380	9
11378	11375	11376	11380	9
11384	11383	4954	4947	9
11384	11383	4954	4956	9
11382	11381	4185	4175	9
11382	11381	4185	4187	9
12228	12227	12226	12237	9
12231	12227	12226	12237	9
12230	12225	12226	12237	9
12233	12225	12226	12237	9
1715	1714	1721	12237	9
1713	1714	1721	12237	9
12226	12227	12228	12235	9
12231	12227	12228	12235	9
12230	12229	12228	12235	9
12232	12229	12228	12235	9
12235	5692	5686	5689	9
12235	5692	5686	5687	9
1714	1721	12237	12226	9
1723	1721	12237	12226	9
12226	12227	12228	12229	9
12226	12225	12230	12229	9
12226	12225	12230	12234	9
12228	12235	5692	5686	9
12228	12235	5692	5693	9
12225	12226	12227	12228	9
12225	12230	12229	12228	9
12228	12229	12230	12234	9
12227	12226	12237	12238	9
1721	12237	12226	12227	9
12227	12226	12225	12230	9
12227	12226	12225	12233	9
12227	12228	12235	12236	9
12227	12228	12235	5692	9
12227	12228	12229	12230	9
12227	12228	12229	12232	9
12225	12226	12237	12238	9
1721	12237	12226	12225	9
12225	12226	12227	12231	9
12225	12230	12229	12232	9
12229	12228	12235	12236	9
12229	12228	12235	5692	9
12229	12228	12227	12231	9
12229	12230	12225	12233	9
12233	12225	12230	12234	9
12232	12229	12230	12234	9
1714	1721	12237	12238	9
1723	1721	12237	12238	9
12236	12235	5692	5686	9
12236	12235	5692	5693	9
10650	10649	10648	10659	9
10653	10649	10648	10659	9
10652	10647	10648	10659	9
10655	10647	10648	10659	9
10659	10667	10661	10662	9
10659	10667	10661	10664	9
10648	10649	10650	10657	9
10653	10649	10650	10657	9
10652	10651	10650	10657	9
10654	10651	10650	10657	9
10657	10878	10868	10871	9
10657	10878	10868	10867	9
10648	10659	10667	10661	9
10648	10659	10667	10668	9
10648	10649	10650	10651	9
10648	10647	10652	10651	9
10648	10647	10652	10656	9
10650	10657	10878	10868	9
10650	10657	10878	10880	9
10647	10648	10649	10650	9
10647	10652	10651	10650	9
10650	10651	10652	10656	9
10649	10648	10659	10660	9
10649	10648	10659	10667	9
10649	10648	10647	10652	9
10649	10648	10647	10655	9
10649	10650	10657	10658	9
10649	10650	10657	10878	9
10649	10650	10651	10652	9
10649	10650	10651	10654	9
10647	10648	10659	10660	9
10647	10648	10659	10667	9
10647	10648	10649	10653	9
10647	10652	10651	10654	9
10651	10650	10657	10658	9
10651	10650	10657	10878	9
10651	10650	10649	10653	9
10651	10652	10647	10655	9
10655	10647	10652	10656	9
10654	10651	10652	10656	9
10660	10659	10667	10661	9
10660	10659	10667	10668	9
10658	10657	10878	10868	9
10658	10657	10878	10880	9
3573	3572	3571	3582	9
3576	3572	3571	3582	9
3575	3570	3571	3582	9
3578	3570	3571	3582	9
3571	3572	3573	3580	9
3576	3572	3573	3580	9
3575	3574	3573	3580	9
3577	3574	3573	3580	9
3580	10497	10490	10489	9
3580	10497	10490	10491	9
3571	3572	3573	3574	9
3571	3570	3575	3574	9
3571	3570	3575	3579	9
3573	3580	10497	10490	9
3573	3580	10497	10499	9
3570	3571	3572	3573	9
3570	3575	3574	3573	9
3573	3574	3575	3579	9
3572	3571	3582	3583	9
3572	3571	3582	3584	9
3572	3571	3570	3575	9
3572	3571	3570	3578	9
3572	3573	3580	3581	9
3572	3573	3580	10497	9
3572	3573	3574	3575	9
3572	3573	3574	3577	9
3570	3571	3582	3583	9
3570	3571	3582	3584	9
3570	3571	3572	3576	9
3570	3575	3574	3577	9
3574	3573	3580	3581	9
3574	3573	3580	10497	9
3574	3573	3572	3576	9
3574	3575	3570	3578	9
3578	3570	3575	3579	9
3577	3574	3575	3579	9
3581	3580	10497	10490	9
3581	3580	10497	10499	9
495	494	493	504	9
498	494	493	504	9
497	492	493	504	9
500	492	493	504	9
504	9938	9932	9935	9
504	9938	9932	9933	9
493	494	495	502	9
498	494	495	502	9
497	496	495	502	9
499	496	495	502	9
476	475	481	502	9
478	475	481	502	9
493	504	9938	9932	9
493	504	9938	9939	9
493	494	495	496	9
493	492	497	496	9
493	492	497	501	9
475	481	502	495	9
482	481	502	495	9
492	493	494	495	9
492	497	496	495	9
495	496	497	501	9
494	493	504	505	9
494	493	504	9938	9
494	493	492	497	9
494	493	492	500	9
494	495	502	503	9
481	502	495	494	9
494	495	496	497	9
494	495	496	499	9
492	493	504	505	9
492	493	504	9938	9
492	493	494	498	9
492	497	496	499	9
496	495	502	503	9
481	502	495	496	9
496	495	494	498	9
496	497	492	500	9
500	492	497	501	9
499	496	497	501	9
505	504	9938	9932	9
505	504	9938	9939	9
475	481	502	503	9
482	481	502	503	9
7774	7773	7772	7783	9
7777	7773	7772	7783	9
7776	7771	7772	7783	9
7779	7771	7772	7783	9
7783	5071	5064	5065	9
7783	5071	5064	5063	9
7772	7773	7774	7781	9
7777	7773	7774	7781	9
7776	7775	7774	7781	9
7778	7775	7774	7781	9
7781	7791	7785	7786	9
7781	7791	7785	7788	9
7772	7783	5071	5064	9
7772	7783	5071	5073	9
7772	7773	7774	7775	9
7772	7771	7776	7775	9
7772	7771	7776	7780	9
7774	7781	7791	7785	9
7774	7781	7791	7792	9
7771	7772	7773	7774	9
7771	7776	7775	7774	9
7774	7775	7776	7780	9
7773	7772	7783	7784	9
7773	7772	7783	5071	9
7773	7772	7771	7776	9
7773	7772	7771	7779	9
7773	7774	7781	7782	9
7773	7774	7781	7791	9
7773	7774	7775	7776	9
7773	7774	7775	7778	9
7771	7772	7783	7784	9
7771	7772	7783	5071	9
7771	7772	7773	7777	9
7771	7776	7775	7778	9
7775	7774	7781	7782	9
7775	7774	7781	7791	9
7775	7774	7773	7777	9
7775	7776	7771	7779	9
7779	7771	7776	7780	9
7778	7775	7776	7780	9
7784	7783	5071	5064	9
7784	7783	5071	5073	9
7782	7781	7791	7785	9
7782	7781	7791	7792	9
11906	11905	11904	11915	9
11909	11905	11904	11915	9
11908	11903	11904	11915	9
11911	11903	11904	11915	9
11915	5129	5122	5123	9
11915	5129	5122	5121	9
11904	11905	11906	11913	9
11909	11905	11906	11913	9
11908	11907	11906	11913	9
11910	11907	11906	11913	9
11913	10031	10021	10024	9
11913	10031	10021	10020	9
11904	11915	5129	5122	9
11904	11915	5129	5131	9
11904	11905	11906	11907	9
11904	11903	11908	11907	9
11904	11903	11908	11912	9
11906	11913	10031	10021	9
11906	11913	10031	10033	9
11903	11904	11905	11906	9
11903	11908	11907	11906	9
11906	11907	11908	11912	9
11905	11904	11915	11916	9
11905	11904	11915	5129	9
11905	11904	11903	11908	9
11905	11904	11903	11911	9
11905	11906	11913	11914	9
11905	11906	11913	10031	9
11905	11906	11907	11908	9
11905	11906	11907	11910	9
11903	11904	11915	11916	9
11903	11904	11915	5129	9
11903	11904	11905	11909	9
11903	11908	11907	11910	9
11907	11906	11913	11914	9
11907	11906	11913	10031	9
11907	11906	11905	11909	9
11907	11908	11903	11911	9
11911	11903	11908	11912	9
11910	11907	11908	11912	9
11916	11915	5129	5122	9
11916	11915	5129	5131	9
11914	11913	10031	10021	9
11914	11913	10031	10033	9
214	213	212	223	9
217	213	212	223	9
216	211	212	223	9
219	211	212	223	9
199	200	202	223	9
201	200	202	223	9
212	213	214	221	9
217	213	214	221	9
216	215	214	221	9
218	215	214	221	9
221	8361	8355	8358	9
221	8361	8355	8356	9
200	202	223	212	9
203	202	223	212	9
212	213	214	215	9
212	211	216	215	9
212	211	216	220	9
214	221	8361	8355	9
214	221	8361	8362	9
211	212	213	214	9
211	216	215	214	9
214	215	216	220	9
213	212	223	224	9
202	223	212	213	9
213	212	211	216	9
213	212	211	219	9
213	214	221	222	9
213	214	221	8361	9
213	214	215	216	9
213	214	215	218	9
211	212	223	224	9
202	223	212	211	9
211	212	213	217	9
211	216	215	218	9
215	214	221	222	9
215	214	221	8361	9
215	214	213	217	9
215	216	211	219	9
219	211	216	220	9
218	215	216	220	9
200	202	223	224	9
203	202	223	224	9
222	221	8361	8355	9
222	221	8361	8362	9
10592	10591	10590	10601	9
10595	10591	10590	10601	9
10594	10589	10590	10601	9
10597	10589	10590	10601	9
10601	10609	10603	10604	9
10601	10609	10603	10606	9
10590	10591	10592	10599	9
10595	10591	10592	10599	9
10594	10593	10592	10599	9
10596	10593	10592	10599	9
10599	7913	7903	7902	9
10599	7913	7903	7906	9
10590	10601	10609	10603	9
10590	10601	10609	10610	9
10590	10591	10592	10593	9
10590	10589	10594	10593	9
10590	10589	10594	10598	9
10592	10599	7913	7903	9
10592	10599	7913	7915	9
10589	10590	10591	10592	9
10589	10594	10593	10592	9
10592	10593	10594	10598	9
10591	10590	10601	10602	9
10591	10590	10601	10609	9
10591	10590	10589	10594	9
10591	10590	10589	10597	9
10591	10592	10599	10600	9
10591	10592	10599	7913	9
10591	10592	10593	10594	9
10591	10592	10593	10596	9
10589	10590	10601	10602	9
10589	10590	10601	10609	9
10589	10590	10591	10595	9
10589	10594	10593	10596	9
10593	10592	10599	10600	9
10593	10592	10599	7913	9
10593	10592	10591	10595	9
10593	10594	10589	10597	9
10597	10589	10594	10598	9
10596	10593	10594	10598	9
10602	10601	10609	10603	9
10602	10601	10609	10610	9
10600	10599	7913	7903	9
10600	10599	7913	7915	9
22	21	20	31	9
25	21	20	31	9
24	19	20	31	9
27	19	20	31	9
31	4010	4003	4002	9
31	4010	4003	4004	9
20	21	22	29	9
25	21	22	29	9
24	23	22	29	9
26	23	22	29	9
9	8	10	29	9
7	8	10	29	9
20	31	4010	4003	9
20	31	4010	4012	9
20	21	22	23	9
20	19	24	23	9
20	19	24	28	9
8	10	29	22	9
11	10	29	22	9
19	20	21	22	9
19	24	23	22	9
22	23	24	28	9
21	20	31	32	9
21	20	31	4010	9
21	20	19	24	9
21	20	19	27	9
21	22	29	30	9
10	29	22	21	9
21	22	23	24	9
21	22	23	26	9
19	20	31	32	9
19	20	31	4010	9
19	20	21	25	9
19	24	23	26	9
23	22	29	30	9
10	29	22	23	9
23	22	21	25	9
23	24	19	27	9
27	19	24	28	9
26	23	24	28	9
32	31	4010	4003	9
32	31	4010	4012	9
8	10	29	30	9
11	10	29	30	9
2746	2747	2748	2755	9
2751	2747	2748	2755	9
2750	2749	2748	2755	9
2752	2749	2748	2755	9
2755	5066	5060	5061	9
2755	5066	5060	5063	9
2748	2747	2746	2757	9
2751	2747	2746	2757	9
2750	2745	2746	2757	9
2753	2745	2746	2757	9
2748	2755	5066	5060	9
2748	2755	5066	5067	9
2745	2746	2747	2748	9
2745	2750	2749	2748	9
2748	2749	2750	2754	9
2746	2747	2748	2749	9
2746	2745	2750	2749	9
2746	2745	2750	2754	9
2747	2748	2755	2756	9
2747	2748	2755	5066	9
2747	2748	2749	2750	9
2747	2748	2749	2752	9
2747	2746	2757	2758	9
2747	2746	2757	2759	9
2747	2746	2745	2750	9
2747	2746	2745	2753	9
2749	2748	2755	2756	9
2749	2748	2755	5066	9
2749	2748	2747	2751	9
2749	2750	2745	2753	9
2745	2746	2757	2758	9
2745	2746	2757	2759	9
2745	2746	2747	2751	9
2745	2750	2749	2752	9
2752	2749	2750	2754	9
2753	2745	2750	2754	9
2756	2755	5066	5060	9
2756	2755	5066	5067	9
2209	2210	2211	2218	9
2214	2210	2211	2218	9
2213	2212	2211	2218	9
2215	2212	2211	2218	9
2192	2191	2197	2218	9
2194	2191	2197	2218	9
2211	2210	2209	2220	9
2214	2210	2209	2220	9
2213	2208	2209	2220	9
2216	2208	2209	2220	9
2220	8420	8414	8415	9
2220	8420	8414	8417	9
2191	2197	2218	2211	9
2198	2197	2218	2211	9
2208	2209	2210	2211	9
2208	2213	2212	2211	9
2211	2212	2213	2217	9
2209	2220	8420	8414	9
2209	2220	8420	8421	9
2209	2210	2211	2212	9
2209	2208	2213	2212	9
2209	2208	2213	2217	9
2210	2211	2218	2219	9
2197	2218	2211	2210	9
2210	2211	2212	2213	9
2210	2211	2212	2215	9
2210	2209	2220	2221	9
2210	2209	2220	8420	9
2210	2209	2208	2213	9
2210	2209	2208	2216	9
2212	2211	2218	2219	9
2197	2218	2211	2212	9
2212	2211	2210	2214	9
2212	2213	2208	2216	9
2208	2209	2220	2221	9
2208	2209	2220	8420	9
2208	2209	2210	2214	9
2208	2213	2212	2215	9
2215	2212	2213	2217	9
2216	2208	2213	2217	9
2191	2197	2218	2219	9
2198	2197	2218	2219	9
2221	2220	8420	8414	9
2221	2220	8420	8421	9
13726	13725	13724	13735	9
13729	13725	13724	13735	9
13728	13723	13724	13735	9
13731	13723	13724	13735	9
13735	10877	10870	10869	9
13735	10877	10870	10871	9
13724	13725	13726	13733	9
13729	13725	13726	13733	9
13728	13727	13726	13733	9
13730	13727	13726	13733	9
13733	10673	10663	10662	9
13733	10673	10663	10666	9
13724	13735	10877	10870	9
13724	13735	10877	10879	9
13724	13725	13726	13727	9
13724	13723	13728	13727	9
13724	13723	13728	13732	9
13726	13733	10673	10663	9
13726	13733	10673	10675	9
13723	13724	13725	13726	9
13723	13728	13727	13726	9
13726	13727	13728	13732	9
13725	13724	13735	13736	9
13725	13724	13735	10877	9
13725	13724	13723	13728	9
13725	13724	13723	13731	9
13725	13726	13733	13734	9
13725	13726	13733	10673	9
13725	13726	13727	13728	9
13725	13726	13727	13730	9
13723	13724	13735	13736	9
13723	13724	13735	10877	9
13723	13724	13725	13729	9
13723	13728	13727	13730	9
13727	13726	13733	13734	9
13727	13726	13733	10673	9
13727	13726	13725	13729	9
13727	13728	13723	13731	9
13731	13723	13728	13732	9
13730	13727	13728	13732	9
13736	13735	10877	10870	9
13736	13735	10877	10879	9
13734	13733	10673	10663	9
13734	13733	10673	10675	9
7235	7234	7233	7244	9
7238	7234	7233	7244	9
7237	7232	7233	7244	9
7240	7232	7233	7244	9
7244	6879	6869	6872	9
7244	6879	6869	6868	9
7233	7234	7235	7242	9
7238	7234	7235	7242	9
7237	7236	7235	7242	9
7239	7236	7235	7242	9
7242	7252	7246	7247	9
7242	7252	7246	7249	9
7233	7244	6879	6869	9
7233	7244	6879	6881	9
7233	7234	7235	7236	9
7233	7232	7237	7236	9
7233	7232	7237	7241	9
7235	7242	7252	7246	9
7235	7242	7252	7253	9
7232	7233	7234	7235	9
7232	7237	7236	7235	9
7235	7236	7237	7241	9
7234	7233	7244	7245	9
7234	7233	7244	6879	9
7234	7233	7232	7237	9
7234	7233	7232	7240	9
7234	7235	7242	7243	9
7234	7235	7242	7252	9
7234	7235	7236	7237	9
7234	7235	7236	7239	9
7232	7233	7244	7245	9
7232	7233	7244	6879	9
7232	7233	7234	7238	9
7232	7237	7236	7239	9
7236	7235	7242	7243	9
7236	7235	7242	7252	9
7236	7235	7234	7238	9
7236	7237	7232	7240	9
7240	7232	7237	7241	9
7239	7236	7237	7241	9
7245	7244	6879	6869	9
7245	7244	6879	6881	9
7243	7242	7252	7246	9
7243	7242	7252	7253	9
4104	4103	4102	4113	9
4107	4103	4102	4113	9
4106	4101	4102	4113	9
4109	4101	4102	4113	9
4113	4121	4115	4116	9
4113	4121	4115	4118	9
4102	4103	4104	4111	9
4107	4103	4104	4111	9
4106	4105	4104	4111	9
4108	4105	4104	4111	9
4111	5590	5584	5587	9
4111	5590	5584	5585	9
4102	4113	4121	4115	9
4102	4113	4121	4122	9
4102	4103	4104	4105	9
4102	4101	4106	4105	9
4102	4101	4106	4110	9
4104	4111	5590	5584	9
4104	4111	5590	5591	9
4101	4102	4103	4104	9
4101	4106	4105	4104	9
4104	4105	4106	4110	9
4103	4102	4113	4114	9
4103	4102	4113	4121	9
4103	4102	4101	4106	9
4103	4102	4101	4109	9
4103	4104	4111	4112	9
4103	4104	4111	5590	9
4103	4104	4105	4106	9
4103	4104	4105	4108	9
4101	4102	4113	4114	9
4101	4102	4113	4121	9
4101	4102	4103	4107	9
4101	4106	4105	4108	9
4105	4104	4111	4112	9
4105	4104	4111	5590	9
4105	4104	4103	4107	9
4105	4106	4101	4109	9
4109	4101	4106	4110	9
4108	4105	4106	4110	9
4114	4113	4121	4115	9
4114	4113	4121	4122	9
4112	4111	5590	5584	9
4112	4111	5590	5591	9
6113	6112	6111	6122	9
6116	6112	6111	6122	9
6115	6110	6111	6122	9
6118	6110	6111	6122	9
6122	6130	6124	6127	9
6122	6130	6124	6125	9
6111	6112	6113	6120	9
6116	6112	6113	6120	9
6115	6114	6113	6120	9
6117	6114	6113	6120	9
6120	6908	6898	6897	9
6120	6908	6898	6901	9
6111	6122	6130	6124	9
6111	6122	6130	6131	9
6111	6112	6113	6114	9
6111	6110	6115	6114	9
6111	6110	6115	6119	9
6113	6120	6908	6898	9
6113	6120	6908	6910	9
6110	6111	6112	6113	9
6110	6115	6114	6113	9
6113	6114	6115	6119	9
6112	6111	6122	6123	9
6112	6111	6122	6130	9
6112	6111	6110	6115	9
6112	6111	6110	6118	9
6112	6113	6120	6121	9
6112	6113	6120	6908	9
6112	6113	6114	6115	9
6112	6113	6114	6117	9
6110	6111	6122	6123	9
6110	6111	6122	6130	9
6110	6111	6112	6116	9
6110	6115	6114	6117	9
6114	6113	6120	6121	9
6114	6113	6120	6908	9
6114	6113	6112	6116	9
6114	6115	6110	6118	9
6118	6110	6115	6119	9
6117	6114	6115	6119	9
6123	6122	6130	6124	9
6123	6122	6130	6131	9
6121	6120	6908	6898	9
6121	6120	6908	6910	9
4291	4292	4293	4300	9
4296	4292	4293	4300	9
4295	4294	4293	4300	9
4297	4294	4293	4300	9
1034	1035	1042	4300	9
1036	1035	1042	4300	9
4293	4292	4291	4302	9
4296	4292	4291	4302	9
4295	4290	4291	4302	9
4298	4290	4291	4302	9
4302	4310	4304	4307	9
4302	4310	4304	4305	9
1035	1042	4300	4293	9
1044	1042	4300	4293	9
4290	4291	4292	4293	9
4290	4295	4294	4293	9
4293	4294	4295	4299	9
4291	4302	4310	4304	9
4291	4302	4310	4311	9
4291	4292	4293	4294	9
4291	4290	4295	4294	9
4291	4290	4295	4299	9
4292	4293	4300	4301	9
1042	4300	4293	4292	9
4292	4293	4294	4295	9
4292	4293	4294	4297	9
4292	4291	4302	4303	9
4292	4291	4302	4310	9
4292	4291	4290	4295	9
4292	4291	4290	4298	9
4294	4293	4300	4301	9
1042	4300	4293	4294	9
4294	4293	4292	4296	9
4294	4295	4290	4298	9
4290	4291	4302	4303	9
4290	4291	4302	4310	9
4290	4291	4292	4296	9
4290	4295	4294	4297	9
4297	4294	4295	4299	9
4298	4290	4295	4299	9
1035	1042	4300	4301	9
1044	1042	4300	4301	9
4303	4302	4310	4304	9
4303	4302	4310	4311	9
13290	13291	13292	13299	9
13295	13291	13292	13299	9
13294	13293	13292	13299	9
13296	13293	13292	13299	9
13299	9229	9219	9222	9
13299	9229	9219	9218	9
13292	13291	13290	13301	9
13295	13291	13290	13301	9
13294	13289	13290	13301	9
13297	13289	13290	13301	9
13301	8249	8239	8238	9
13301	8249	8239	8242	9
13292	13299	9229	9219	9
13292	13299	9229	9231	9
13289	13290	13291	13292	9
13289	13294	13293	13292	9
13292	13293	13294	13298	9
13290	13301	8249	8239	9
13290	13301	8249	8251	9
13290	13291	13292	13293	9
13290	13289	13294	13293	9
13290	13289	13294	13298	9
13291	13292	13299	13300	9
13291	13292	13299	9229	9
13291	13292	13293	13294	9
13291	13292	13293	13296	9
13291	13290	13301	13302	9
13291	13290	13301	8249	9
13291	13290	13289	13294	9
13291	13290	13289	13297	9
13293	13292	13299	13300	9
13293	13292	13299	9229	9
13293	13292	13291	13295	9
13293	13294	13289	13297	9
13289	13290	13301	13302	9
13289	13290	13301	8249	9
13289	13290	13291	13295	9
13289	13294	13293	13296	9
13296	13293	13294	13298	9
13297	13289	13294	13298	9
13300	13299	9229	9219	9
13300	13299	9229	9231	9
13302	13301	8249	8239	9
13302	13301	8249	8251	9
7075	7074	7073	7084	9
7078	7074	7073	7084	9
7077	7072	7073	7084	9
7080	7072	7073	7084	9
7084	11172	11162	11165	9
7084	11172	11162	11161	9
7073	7074	7075	7082	9
7078	7074	7075	7082	9
7077	7076	7075	7082	9
7079	7076	7075	7082	9
7082	7092	7086	7087	9
7082	7092	7086	7089	9
7073	7084	11172	11162	9
7073	7084	11172	11174	9
7073	7074	7075	7076	9
7073	7072	7077	7076	9
7073	7072	7077	7081	9
7075	7082	7092	7086	9
7075	7082	7092	7093	9
7072	7073	7074	7075	9
7072	7077	7076	7075	9
7075	7076	7077	7081	9
7074	7073	7084	7085	9
7074	7073	7084	11172	9
7074	7073	7072	7077	9
7074	7073	7072	7080	9
7074	7075	7082	7083	9
7074	7075	7082	7092	9
7074	7075	7076	7077	9
7074	7075	7076	7079	9
7072	7073	7084	7085	9
7072	7073	7084	11172	9
7072	7073	7074	7078	9
7072	7077	7076	7079	9
7076	7075	7082	7083	9
7076	7075	7082	7092	9
7076	7075	7074	7078	9
7076	7077	7072	7080	9
7080	7072	7077	7081	9
7079	7076	7077	7081	9
7085	7084	11172	11162	9
7085	7084	11172	11174	9
7083	7082	7092	7086	9
7083	7082	7092	7093	9
4162	4161	4160	4171	9
4165	4161	4160	4171	9
4164	4159	4160	4171	9
4167	4159	4160	4171	9
4171	5434	5427	5426	9
4171	5434	5427	5428	9
4160	4161	4162	4169	9
4165	4161	4162	4169	9
4164	4163	4162	4169	9
4166	4163	4162	4169	9
4169	4179	4173	4174	9
4169	4179	4173	4176	9
4160	4171	5434	5427	9
4160	4171	5434	5436	9
4160	4161	4162	4163	9
4160	4159	4164	4163	9
4160	4159	4164	4168	9
4162	4169	4179	4173	9
4162	4169	4179	4180	9
4159	4160	4161	4162	9
4159	4164	4163	4162	9
4162	4163	4164	4168	9
4161	4160	4171	4172	9
4161	4160	4171	5434	9
4161	4160	4159	4164	9
4161	4160	4159	4167	9
4161	4162	4169	4170	9
4161	4162	4169	4179	9
4161	4162	4163	4164	9
4161	4162	4163	4166	9
4159	4160	4171	4172	9
4159	4160	4171	5434	9
4159	4160	4161	4165	9
4159	4164	4163	4166	9
4163	4162	4169	4170	9
4163	4162	4169	4179	9
4163	4162	4161	4165	9
4163	4164	4159	4167	9
4167	4159	4164	4168	9
4166	4163	4164	4168	9
4172	4171	5434	5427	9
4172	4171	5434	5436	9
4170	4169	4179	4173	9
4170	4169	4179	4180	9
3586	3587	3588	3595	9
3591	3587	3588	3595	9
3590	3589	3588	3595	9
3592	3589	3588	3595	9
3595	10643	10636	10635	9
3595	10643	10636	10637	9
3588	3587	3586	3597	9
3591	3587	3586	3597	9
3590	3585	3586	3597	9
3593	3585	3586	3597	9
3588	3595	10643	10636	9
3588	3595	10643	10645	9
3585	3586	3587	3588	9
3585	3590	3589	3588	9
3588	3589	3590	3594	9
3586	3587	3588	3589	9
3586	3585	3590	3589	9
3586	3585	3590	3594	9
3587	3588	3595	3596	9
3587	3588	3595	10643	9
3587	3588	3589	3590	9
3587	3588	3589	3592	9
3587	3586	3597	3598	9
3587	3586	3597	3599	9
3587	3586	3585	3590	9
3587	3586	3585	3593	9
3589	3588	3595	3596	9
3589	3588	3595	10643	9
3589	3588	3587	3591	9
3589	3590	3585	3593	9
3585	3586	3597	3598	9
3585	3586	3597	3599	9
3585	3586	3587	3591	9
3585	3590	3589	3592	9
3592	3589	3590	3594	9
3593	3585	3590	3594	9
3596	3595	10643	10636	9
3596	3595	10643	10645	9
3346	3347	3348	3355	9
3351	3347	3348	3355	9
3350	3349	3348	3355	9
3352	3349	3348	3355	9
3355	9078	9072	9073	9
3355	9078	9072	9075	9
3348	3347	3346	3357	9
3351	3347	3346	3357	9
3350	3345	3346	3357	9
3353	3345	3346	3357	9
3348	3355	9078	9072	9
3348	3355	9078	9079	9
3345	3346	3347	3348	9
3345	3350	3349	3348	9
3348	3349	3350	3354	9
3346	3347	3348	3349	9
3346	3345	3350	3349	9
3346	3345	3350	3354	9
3347	3348	3355	3356	9
3347	3348	3355	9078	9
3347	3348	3349	3350	9
3347	3348	3349	3352	9
3347	3346	3357	3358	9
3347	3346	3357	3359	9
3347	3346	3345	3350	9
3347	3346	3345	3353	9
3349	3348	3355	3356	9
3349	3348	3355	9078	9
3349	3348	3347	3351	9
3349	3350	3345	3353	9
3345	3346	3357	3358	9
3345	3346	3357	3359	9
3345	3346	3347	3351	9
3345	3350	3349	3352	9
3352	3349	3350	3354	9
3353	3345	3350	3354	9
3356	3355	9078	9072	9
3356	3355	9078	9079	9
7583	7584	7585	7592	9
7588	7584	7585	7592	9
7587	7586	7585	7592	9
7589	7586	7585	7592	9
7592	7607	7600	7601	9
7592	7607	7600	7599	9
7585	7584	7583	7594	9
7588	7584	7583	7594	9
7587	7582	7583	7594	9
7590	7582	7583	7594	9
7594	5668	5661	5660	9
7594	5668	5661	5662	9
7585	7592	7607	7600	9
7585	7592	7607	7609	9
7585	7584	7583	7582	9
7585	7586	7587	7582	9
7585	7586	7587	7591	9
7583	7594	5668	5661	9
7583	7594	5668	5670	9
7586	7585	7584	7583	9
7586	7587	7582	7583	9
7583	7582	7587	7591	9
7584	7585	7592	7593	9
7584	7585	7592	7607	9
7584	7585	7586	7587	9
7584	7585	7586	7589	9
7584	7583	7594	7595	9
7584	7583	7594	5668	9
7584	7583	7582	7587	9
7584	7583	7582	7590	9
7586	7585	7592	7593	9
7586	7585	7592	7607	9
7586	7585	7584	7588	9
7586	7587	7582	7590	9
7582	7583	7594	7595	9
7582	7583	7594	5668	9
7582	7583	7584	7588	9
7582	7587	7586	7589	9
7589	7586	7587	7591	9
7590	7582	7587	7591	9
7593	7592	7607	7600	9
7593	7592	7607	7609	9
7595	7594	5668	5661	9
7595	7594	5668	5670	9
10460	10459	10458	10469	9
10463	10459	10458	10469	9
10462	10457	10458	10469	9
10465	10457	10458	10469	9
10469	10482	10475	10476	9
10469	10482	10475	10474	9
10458	10459	10460	10467	9
10463	10459	10460	10467	9
10462	10461	10460	10467	9
10464	10461	10460	10467	9
10467	6674	6667	6666	9
10467	6674	6667	6668	9
10458	10469	10482	10475	9
10458	10469	10482	10484	9
10458	10459	10460	10461	9
10458	10457	10462	10461	9
10458	10457	10462	10466	9
10460	10467	6674	6667	9
10460	10467	6674	6676	9
10457	10458	10459	10460	9
10457	10462	10461	10460	9
10460	10461	10462	10466	9
10459	10458	10469	10470	9
10459	10458	10469	10482	9
10459	10458	10457	10462	9
10459	10458	10457	10465	9
10459	10460	10467	10468	9
10459	10460	10467	6674	9
10459	10460	10461	10462	9
10459	10460	10461	10464	9
10457	10458	10469	10470	9
10457	10458	10469	10482	9
10457	10458	10459	10463	9
10457	10462	10461	10464	9
10461	10460	10467	10468	9
10461	10460	10467	6674	9
10461	10460	10459	10463	9
10461	10462	10457	10465	9
10465	10457	10462	10466	9
10464	10461	10462	10466	9
10470	10469	10482	10475	9
10470	10469	10482	10484	9
10468	10467	6674	6667	9
10468	10467	6674	6676	9
5383	5382	5381	5392	9
5386	5382	5381	5392	9
5385	5380	5381	5392	9
5388	5380	5381	5392	9
5392	5400	5394	5397	9
5392	5400	5394	5395	9
5381	5382	5383	5390	9
5386	5382	5383	5390	9
5385	5384	5383	5390	9
5387	5384	5383	5390	9
5390	10492	10486	10489	9
5390	10492	10486	10487	9
5381	5392	5400	5394	9
5381	5392	5400	5401	9
5381	5382	5383	5384	9
5381	5380	5385	5384	9
5381	5380	5385	5389	9
5383	5390	10492	10486	9
5383	5390	10492	10493	9
5380	5381	5382	5383	9
5380	5385	5384	5383	9
5383	5384	5385	5389	9
5382	5381	5392	5393	9
5382	5381	5392	5400	9
5382	5381	5380	5385	9
5382	5381	5380	5388	9
5382	5383	5390	5391	9
5382	5383	5390	10492	9
5382	5383	5384	5385	9
5382	5383	5384	5387	9
5380	5381	5392	5393	9
5380	5381	5392	5400	9
5380	5381	5382	5386	9
5380	5385	5384	5387	9
5384	5383	5390	5391	9
5384	5383	5390	10492	9
5384	5383	5382	5386	9
5384	5385	5380	5388	9
5388	5380	5385	5389	9
5387	5384	5385	5389	9
5393	5392	5400	5394	9
5393	5392	5400	5401	9
5391	5390	10492	10486	9
5391	5390	10492	10493	9
12158	12157	12156	12167	9
12161	12157	12156	12167	9
12160	12155	12156	12167	9
12163	12155	12156	12167	9
12167	9637	9627	9630	9
12167	9637	9627	9626	9
12156	12157	12158	12165	9
12161	12157	12158	12165	9
12160	12159	12158	12165	9
12162	12159	12158	12165	9
12165	5596	5586	5589	9
12165	5596	5586	5585	9
12156	12167	9637	9627	9
12156	12167	9637	9639	9
12156	12157	12158	12159	9
12156	12155	12160	12159	9
12156	12155	12160	12164	9
12158	12165	5596	5586	9
12158	12165	5596	5598	9
12155	12156	12157	12158	9
12155	12160	12159	12158	9
12158	12159	12160	12164	9
12157	12156	12167	12168	9
12157	12156	12167	9637	9
12157	12156	12155	12160	9
12157	12156	12155	12163	9
12157	12158	12165	12166	9
12157	12158	12165	5596	9
12157	12158	12159	12160	9
12157	12158	12159	12162	9
12155	12156	12167	12168	9
12155	12156	12167	9637	9
12155	12156	12157	12161	9
12155	12160	12159	12162	9
12159	12158	12165	12166	9
12159	12158	12165	5596	9
12159	12158	12157	12161	9
12159	12160	12155	12163	9
12163	12155	12160	12164	9
12162	12159	12160	12164	9
12168	12167	9637	9627	9
12168	12167	9637	9639	9
12166	12165	5596	5586	9
12166	12165	5596	5598	9
3839	3840	3841	3844	9
3839	3840	3841	3851	9
3839	3842	3843	3844	9
3839	3842	3843	3850	9
3840	3841	3844	3843	9
3840	3841	3844	3849	9
3840	3841	3851	3853	9
3840	3839	3842	3843	9
3840	3839	3842	3848	9
3840	3839	3845	3846	9
3841	3840	3839	3842	9
3841	3840	3839	3845	9
3841	3844	3843	3842	9
3841	3844	3843	3850	9
3844	3841	3840	3847	9
3844	3841	3851	3853	9
3844	3843	3842	3848	9
3844	3843	3850	3852	9
3843	3844	3841	3851	9
3843	3842	3839	3845	9
3842	3843	3844	3849	9
3842	3843	3850	3852	9
3842	3839	3840	3847	9
3842	3839	3845	3846	9
3849	3844	3843	3850	9
3848	3842	3843	3850	9
3845	3839	3840	3847	9
3845	3839	3842	3848	9
3847	3840	3841	3851	9
3849	3844	3841	3851	9
291	294	293	292	9
291	294	293	300	9
291	290	289	292	9
291	290	289	295	9
291	301	304	305	9
289	292	293	294	9
294	293	292	298	9
294	293	300	302	9
289	290	291	294	9
294	291	290	297	9
294	291	301	303	9
294	291	301	304	9
290	291	294	293	9
293	294	291	301	9
290	289	292	293	9
293	292	289	295	9
292	293	294	299	9
292	293	300	302	9
292	289	290	297	9
292	289	295	296	9
289	292	293	300	9
289	290	291	301	9
290	289	292	298	9
290	289	295	296	9
290	291	294	299	9
290	291	301	303	9
290	291	301	304	9
295	289	292	298	9
295	289	290	297	9
299	294	291	301	9
297	290	291	301	9
299	294	293	300	9
298	292	293	300	9
303	301	304	305	9
320	321	322	325	9
320	321	322	332	9
320	323	324	325	9
320	323	324	331	9
321	322	325	324	9
321	322	325	330	9
321	322	332	334	9
321	322	332	335	9
321	320	323	324	9
321	320	323	329	9
321	320	326	327	9
322	321	320	323	9
322	321	320	326	9
322	325	324	323	9
322	325	324	331	9
322	332	335	336	9
325	322	321	328	9
325	322	332	334	9
325	322	332	335	9
325	324	323	329	9
325	324	331	333	9
324	325	322	332	9
324	323	320	326	9
323	324	325	330	9
323	324	331	333	9
323	320	321	328	9
323	320	326	327	9
330	325	324	331	9
329	323	324	331	9
326	320	321	328	9
326	320	323	329	9
328	321	322	332	9
330	325	322	332	9
334	332	335	336	9
3854	3857	3858	3859	9
3854	3857	3858	3865	9
3854	3855	3856	3859	9
3854	3855	3856	3866	9
3856	3859	3858	3857	9
3857	3858	3859	3864	9
3857	3858	3865	3867	9
3856	3855	3854	3857	9
3857	3854	3855	3862	9
3857	3854	3860	3861	9
3855	3854	3857	3858	9
3858	3857	3854	3860	9
3855	3856	3859	3858	9
3858	3859	3856	3866	9
3859	3858	3857	3863	9
3859	3858	3865	3867	9
3859	3856	3855	3862	9
3859	3856	3866	3868	9
3856	3859	3858	3865	9
3856	3855	3854	3860	9
3855	3856	3859	3864	9
3855	3856	3866	3868	9
3855	3854	3857	3863	9
3855	3854	3860	3861	9
3864	3859	3856	3866	9
3862	3855	3856	3866	9
3860	3854	3857	3863	9
3860	3854	3855	3862	9
3863	3857	3858	3865	9
3864	3859	3858	3865	9
351	354	355	356	9
351	354	355	362	9
351	352	353	356	9
351	352	353	363	9
353	356	355	354	9
354	355	356	361	9
354	355	362	364	9
353	352	351	354	9
354	351	352	359	9
354	351	357	358	9
352	351	354	355	9
355	354	351	357	9
352	353	356	355	9
355	356	353	363	9
356	355	354	360	9
356	355	362	364	9
356	353	352	359	9
356	353	363	365	9
356	353	363	366	9
353	356	355	362	9
353	352	351	357	9
353	363	366	367	9
352	353	356	361	9
352	353	363	365	9
352	353	363	366	9
352	351	354	360	9
352	351	357	358	9
361	356	353	363	9
359	352	353	363	9
357	351	354	360	9
357	351	352	359	9
360	354	355	362	9
361	356	355	362	9
365	363	366	367	9
382	385	386	387	9
382	385	386	393	9
382	383	384	387	9
382	383	384	394	9
384	387	386	385	9
385	386	387	392	9
385	386	393	395	9
384	383	382	385	9
385	382	383	390	9
385	382	388	389	9
383	382	385	386	9
386	385	382	388	9
383	384	387	386	9
386	387	384	394	9
387	386	385	391	9
387	386	393	395	9
387	384	383	390	9
387	384	394	396	9
387	384	394	397	9
384	387	386	393	9
384	383	382	388	9
384	394	397	398	9
383	384	387	392	9
383	384	394	396	9
383	384	394	397	9
383	382	385	391	9
383	382	388	389	9
392	387	384	394	9
390	383	384	394	9
388	382	385	391	9
388	382	383	390	9
391	385	386	393	9
392	387	386	393	9
396	394	397	398	9
3883	3886	3887	3888	9
3883	3886	3887	3894	9
3883	3884	3885	3888	9
3883	3884	3885	3895	9
3885	3888	3887	3886	9
3886	3887	3888	3893	9
3886	3887	3894	3896	9
3885	3884	3883	3886	9
3886	3883	3884	3891	9
3886	3883	3889	3890	9
3884	3883	3886	3887	9
3887	3886	3883	3889	9
3884	3885	3888	3887	9
3887	3888	3885	3895	9
3888	3887	3886	3892	9
3888	3887	3894	3896	9
3888	3885	3884	3891	9
3888	3885	3895	3897	9
3885	3888	3887	3894	9
3885	3884	3883	3889	9
3884	3885	3888	3893	9
3884	3885	3895	3897	9
3884	3883	3886	3892	9
3884	3883	3889	3890	9
3893	3888	3885	3895	9
3891	3884	3885	3895	9
3889	3883	3886	3892	9
3889	3883	3884	3891	9
3892	3886	3887	3894	9
3893	3888	3887	3894	9
3912	3915	3916	3917	9
3912	3915	3916	3923	9
3912	3913	3914	3917	9
3912	3913	3914	3924	9
3914	3917	3916	3915	9
3915	3916	3917	3922	9
3915	3916	3923	3925	9
3914	3913	3912	3915	9
3915	3912	3913	3920	9
3915	3912	3918	3919	9
3913	3912	3915	3916	9
3916	3915	3912	3918	9
3913	3914	3917	3916	9
3916	3917	3914	3924	9
3917	3916	3915	3921	9
3917	3916	3923	3925	9
3917	3914	3913	3920	9
3917	3914	3924	3926	9
3914	3917	3916	3923	9
3914	3913	3912	3918	9
3913	3914	3917	3922	9
3913	3914	3924	3926	9
3913	3912	3915	3921	9
3913	3912	3918	3919	9
3922	3917	3914	3924	9
3920	3913	3914	3924	9
3918	3912	3915	3921	9
3918	3912	3913	3920	9
3921	3915	3916	3923	9
3922	3917	3916	3923	9
415	414	413	416	9
415	414	413	419	9
415	418	417	416	9
415	418	417	424	9
415	425	428	429	9
414	413	416	417	9
414	413	416	422	9
414	413	419	420	9
414	415	418	417	9
414	415	418	423	9
414	415	425	427	9
414	415	425	428	9
413	414	415	418	9
413	414	415	425	9
413	416	417	418	9
413	416	417	424	9
416	413	414	421	9
416	413	419	420	9
416	417	418	423	9
416	417	424	426	9
417	416	413	419	9
417	418	415	425	9
418	417	416	422	9
418	417	424	426	9
418	415	414	421	9
418	415	425	427	9
418	415	425	428	9
422	416	417	424	9
423	418	417	424	9
421	414	415	425	9
423	418	415	425	9
419	413	414	421	9
419	413	416	422	9
427	425	428	429	9
3941	3944	3945	3946	9
3941	3944	3945	3952	9
3941	3942	3943	3946	9
3941	3942	3943	3953	9
3943	3946	3945	3944	9
3944	3945	3946	3951	9
3944	3945	3952	3954	9
3943	3942	3941	3944	9
3944	3941	3942	3949	9
3944	3941	3947	3948	9
3942	3941	3944	3945	9
3945	3944	3941	3947	9
3942	3943	3946	3945	9
3945	3946	3943	3953	9
3946	3945	3944	3950	9
3946	3945	3952	3954	9
3946	3943	3942	3949	9
3946	3943	3953	3955	9
3943	3946	3945	3952	9
3943	3942	3941	3947	9
3942	3943	3946	3951	9
3942	3943	3953	3955	9
3942	3941	3944	3950	9
3942	3941	3947	3948	9
3951	3946	3943	3953	9
3949	3942	3943	3953	9
3947	3941	3944	3950	9
3947	3941	3942	3949	9
3950	3944	3945	3952	9
3951	3946	3945	3952	9
3970	3971	3972	3975	9
3970	3971	3972	3982	9
3970	3973	3974	3975	9
3970	3973	3974	3981	9
3971	3972	3975	3974	9
3971	3972	3975	3980	9
3971	3972	3982	3984	9
3971	3970	3973	3974	9
3971	3970	3973	3979	9
3971	3970	3976	3977	9
3972	3971	3970	3973	9
3972	3971	3970	3976	9
3972	3975	3974	3973	9
3972	3975	3974	3981	9
3975	3972	3971	3978	9
3975	3972	3982	3984	9
3975	3974	3973	3979	9
3975	3974	3981	3983	9
3974	3975	3972	3982	9
3974	3973	3970	3976	9
3973	3974	3975	3980	9
3973	3974	3981	3983	9
3973	3970	3971	3978	9
3973	3970	3976	3977	9
3980	3975	3974	3981	9
3979	3973	3974	3981	9
3976	3970	3971	3978	9
3976	3970	3973	3979	9
3978	3971	3972	3982	9
3980	3975	3972	3982	9
3999	4002	4003	4004	9
3999	4002	4003	4010	9
3999	4000	4001	4004	9
3999	4000	4001	4011	9
4002	4003	4004	4001	9
4002	4003	4004	4009	9
4002	4003	4010	4012	9
4002	3999	4000	4001	9
4002	3999	4000	4007	9
4002	3999	4005	4006	9
4003	4002	3999	4000	9
4003	4002	3999	4005	9
4003	4004	4001	4000	9
4003	4004	4001	4011	9
4004	4003	4002	4008	9
4004	4003	4010	4012	9
4004	4001	4000	4007	9
4004	4001	4011	4013	9
4001	4004	4003	4010	9
4001	4000	3999	4005	9
4000	4001	4004	4009	9
4000	4001	4011	4013	9
4000	3999	4002	4008	9
4000	3999	4005	4006	9
4009	4004	4001	4011	9
4007	4000	4001	4011	9
4005	3999	4002	4008	9
4005	3999	4000	4007	9
4008	4002	4003	4010	9
4009	4004	4003	4010	9
446	445	444	447	9
446	445	444	450	9
446	449	448	447	9
446	449	448	455	9
446	456	459	460	9
445	444	447	448	9
445	444	447	453	9
445	444	450	451	9
445	446	449	448	9
445	446	449	454	9
445	446	456	458	9
445	446	456	459	9
444	445	446	449	9
444	445	446	456	9
444	447	448	449	9
444	447	448	455	9
447	444	445	452	9
447	444	450	451	9
447	448	449	454	9
447	448	455	457	9
448	447	444	450	9
448	449	446	456	9
449	448	447	453	9
449	448	455	457	9
449	446	445	452	9
449	446	456	458	9
449	446	456	459	9
453	447	448	455	9
454	449	448	455	9
452	445	446	456	9
454	449	446	456	9
450	444	445	452	9
450	444	447	453	9
458	456	459	460	9
4028	4031	4032	4033	9
4028	4031	4032	4039	9
4028	4029	4030	4033	9
4028	4029	4030	4040	9
4031	4032	4033	4030	9
4031	4032	4033	4038	9
4031	4032	4039	4041	9
4031	4028	4029	4030	9
4031	4028	4029	4036	9
4031	4028	4034	4035	9
4032	4031	4028	4029	9
4032	4031	4028	4034	9
4032	4033	4030	4029	9
4032	4033	4030	4040	9
4033	4032	4031	4037	9
4033	4032	4039	4041	9
4033	4030	4029	4036	9
4033	4030	4040	4042	9
4030	4033	4032	4039	9
4030	4029	4028	4034	9
4029	4030	4033	4038	9
4029	4030	4040	4042	9
4029	4028	4031	4037	9
4029	4028	4034	4035	9
4038	4033	4030	4040	9
4036	4029	4030	4040	9
4034	4028	4031	4037	9
4034	4028	4029	4036	9
4037	4031	4032	4039	9
4038	4033	4032	4039	9
4057	4058	4059	4062	9
4057	4058	4059	4069	9
4057	4060	4061	4062	9
4057	4060	4061	4068	9
4058	4059	4062	4061	9
4058	4059	4062	4067	9
4058	4059	4069	4071	9
4058	4057	4060	4061	9
4058	4057	4060	4066	9
4058	4057	4063	4064	9
4059	4058	4057	4060	9
4059	4058	4057	4063	9
4059	4062	4061	4060	9
4059	4062	4061	4068	9
4062	4059	4058	4065	9
4062	4059	4069	4071	9
4062	4061	4060	4066	9
4062	4061	4068	4070	9
4061	4062	4059	4069	9
4061	4060	4057	4063	9
4060	4061	4062	4067	9
4060	4061	4068	4070	9
4060	4057	4058	4065	9
4060	4057	4063	4064	9
4067	4062	4061	4068	9
4066	4060	4061	4068	9
4063	4057	4058	4065	9
4063	4057	4060	4066	9
4065	4058	4059	4069	9
4067	4062	4059	4069	9
4086	4087	4088	4091	9
4086	4087	4088	4098	9
4086	4089	4090	4091	9
4086	4089	4090	4097	9
4087	4088	4091	4090	9
4087	4088	4091	4096	9
4087	4088	4098	4100	9
4087	4086	4089	4090	9
4087	4086	4089	4095	9
4087	4086	4092	4093	9
4088	4087	4086	4089	9
4088	4087	4086	4092	9
4088	4091	4090	4089	9
4088	4091	4090	4097	9
4091	4088	4087	4094	9
4091	4088	4098	4100	9
4091	4090	4089	4095	9
4091	4090	4097	4099	9
4090	4091	4088	4098	9
4090	4089	4086	4092	9
4089	4090	4091	4096	9
4089	4090	4097	4099	9
4089	4086	4087	4094	9
4089	4086	4092	4093	9
4096	4091	4090	4097	9
4095	4089	4090	4097	9
4092	4086	4087	4094	9
4092	4086	4089	4095	9
4094	4087	4088	4098	9
4096	4091	4088	4098	9
7	8	9	4	9
4	9	8	10	9
7	6	5	4	9
4	5	6	12	9
4	2	1	15	9
6	7	8	9	9
9	8	7	17	9
9	8	10	11	9
6	5	4	9	9
9	4	5	16	9
9	4	2	3	9
9	4	2	1	9
8	9	4	5	9
8	9	4	2	9
8	7	6	5	9
8	7	6	12	9
7	8	9	18	9
7	8	10	11	9
7	6	5	16	9
7	6	12	13	9
7	6	12	14	9
6	7	8	10	9
6	5	4	2	9
5	6	7	17	9
5	6	12	13	9
5	6	12	14	9
5	4	9	18	9
5	4	2	3	9
5	4	2	1	9
17	7	6	12	9
16	5	6	12	9
18	9	4	2	9
16	5	4	2	9
10	8	9	18	9
10	8	7	17	9
3	2	1	15	9
4115	4116	4117	4120	9
4115	4116	4117	4127	9
4115	4118	4119	4120	9
4115	4118	4119	4126	9
4116	4117	4120	4119	9
4116	4117	4120	4125	9
4116	4117	4127	4129	9
4116	4115	4118	4119	9
4116	4115	4118	4124	9
4116	4115	4121	4122	9
4117	4116	4115	4118	9
4117	4116	4115	4121	9
4117	4120	4119	4118	9
4117	4120	4119	4126	9
4120	4117	4116	4123	9
4120	4117	4127	4129	9
4120	4119	4118	4124	9
4120	4119	4126	4128	9
4119	4120	4117	4127	9
4119	4118	4115	4121	9
4118	4119	4120	4125	9
4118	4119	4126	4128	9
4118	4115	4116	4123	9
4118	4115	4121	4122	9
4125	4120	4119	4126	9
4124	4118	4119	4126	9
4121	4115	4116	4123	9
4121	4115	4118	4124	9
4123	4116	4117	4127	9
4125	4120	4117	4127	9
475	476	477	480	9
475	476	477	487	9
475	478	479	480	9
475	478	479	486	9
476	477	480	479	9
476	477	480	485	9
476	477	487	489	9
476	477	487	490	9
476	475	478	479	9
476	475	478	484	9
476	475	481	482	9
477	476	475	478	9
477	476	475	481	9
477	480	479	478	9
477	480	479	486	9
477	487	490	491	9
480	477	476	483	9
480	477	487	489	9
480	477	487	490	9
480	479	478	484	9
480	479	486	488	9
479	480	477	487	9
479	478	475	481	9
478	479	480	485	9
478	479	486	488	9
478	475	476	483	9
478	475	481	482	9
485	480	479	486	9
484	478	479	486	9
481	475	476	483	9
481	475	478	484	9
483	476	477	487	9
485	480	477	487	9
489	487	490	491	9
4144	4145	4146	4149	9
4144	4145	4146	4156	9
4144	4147	4148	4149	9
4144	4147	4148	4155	9
4145	4146	4149	4148	9
4145	4146	4149	4154	9
4145	4146	4156	4158	9
4145	4144	4147	4148	9
4145	4144	4147	4153	9
4145	4144	4150	4151	9
4146	4145	4144	4147	9
4146	4145	4144	4150	9
4146	4149	4148	4147	9
4146	4149	4148	4155	9
4149	4146	4145	4152	9
4149	4146	4156	4158	9
4149	4148	4147	4153	9
4149	4148	4155	4157	9
4148	4149	4146	4156	9
4148	4147	4144	4150	9
4147	4148	4149	4154	9
4147	4148	4155	4157	9
4147	4144	4145	4152	9
4147	4144	4150	4151	9
4154	4149	4148	4155	9
4153	4147	4148	4155	9
4150	4144	4145	4152	9
4150	4144	4147	4153	9
4152	4145	4146	4156	9
4154	4149	4146	4156	9
522	527	526	525	9
522	527	526	528	9
522	523	524	525	9
522	523	524	530	9
524	525	526	527	9
527	526	525	534	9
527	526	528	529	9
524	523	522	527	9
527	522	523	533	9
527	522	520	521	9
523	522	527	526	9
526	527	522	520	9
523	524	525	526	9
526	525	524	530	9
525	526	527	535	9
525	526	528	529	9
525	524	523	533	9
525	524	530	531	9
525	524	530	532	9
524	525	526	528	9
524	523	522	520	9
523	524	525	534	9
523	524	530	531	9
523	524	530	532	9
523	522	527	535	9
523	522	520	521	9
534	525	524	530	9
533	523	524	530	9
520	522	527	535	9
520	522	523	533	9
535	527	526	528	9
534	525	526	528	9
4173	4174	4175	4178	9
4173	4174	4175	4185	9
4173	4176	4177	4178	9
4173	4176	4177	4184	9
4174	4175	4178	4177	9
4174	4175	4178	4183	9
4174	4175	4185	4187	9
4174	4173	4176	4177	9
4174	4173	4176	4182	9
4174	4173	4179	4180	9
4175	4174	4173	4176	9
4175	4174	4173	4179	9
4175	4178	4177	4176	9
4175	4178	4177	4184	9
4178	4175	4174	4181	9
4178	4175	4185	4187	9
4178	4177	4176	4182	9
4178	4177	4184	4186	9
4177	4178	4175	4185	9
4177	4176	4173	4179	9
4176	4177	4178	4183	9
4176	4177	4184	4186	9
4176	4173	4174	4181	9
4176	4173	4179	4180	9
4183	4178	4177	4184	9
4182	4176	4177	4184	9
4179	4173	4174	4181	9
4179	4173	4176	4182	9
4181	4174	4175	4185	9
4183	4178	4175	4185	9
4202	4203	4204	4207	9
4202	4203	4204	4214	9
4202	4205	4206	4207	9
4202	4205	4206	4213	9
4203	4204	4207	4206	9
4203	4204	4207	4212	9
4203	4204	4214	4216	9
4203	4202	4205	4206	9
4203	4202	4205	4211	9
4203	4202	4208	4209	9
4204	4203	4202	4205	9
4204	4203	4202	4208	9
4204	4207	4206	4205	9
4204	4207	4206	4213	9
4207	4204	4203	4210	9
4207	4204	4214	4216	9
4207	4206	4205	4211	9
4207	4206	4213	4215	9
4206	4207	4204	4214	9
4206	4205	4202	4208	9
4205	4206	4207	4212	9
4205	4206	4213	4215	9
4205	4202	4203	4210	9
4205	4202	4208	4209	9
4212	4207	4206	4213	9
4211	4205	4206	4213	9
4208	4202	4203	4210	9
4208	4202	4205	4211	9
4210	4203	4204	4214	9
4212	4207	4204	4214	9
4231	4234	4235	4236	9
4231	4234	4235	4242	9
4231	4232	4233	4236	9
4231	4232	4233	4243	9
4234	4235	4236	4233	9
4234	4235	4236	4241	9
4234	4235	4242	4244	9
4234	4231	4232	4233	9
4234	4231	4232	4239	9
4234	4231	4237	4238	9
4235	4234	4231	4232	9
4235	4234	4231	4237	9
4235	4236	4233	4232	9
4235	4236	4233	4243	9
4236	4235	4234	4240	9
4236	4235	4242	4244	9
4236	4233	4232	4239	9
4236	4233	4243	4245	9
4233	4236	4235	4242	9
4233	4232	4231	4237	9
4232	4233	4236	4241	9
4232	4233	4243	4245	9
4232	4231	4234	4240	9
4232	4231	4237	4238	9
4241	4236	4233	4243	9
4239	4232	4233	4243	9
4237	4231	4234	4240	9
4237	4231	4232	4239	9
4240	4234	4235	4242	9
4241	4236	4235	4242	9
4260	4261	4262	4265	9
4260	4261	4262	4272	9
4260	4263	4264	4265	9
4260	4263	4264	4271	9
4264	4265	4262	4261	9
4261	4262	4265	4270	9
4261	4262	4272	4274	9
4264	4263	4260	4261	9
4261	4260	4263	4269	9
4261	4260	4266	4267	9
4263	4260	4261	4262	9
4262	4261	4260	4266	9
4263	4264	4265	4262	9
4262	4265	4264	4271	9
4265	4262	4261	4268	9
4265	4262	4272	4274	9
4265	4264	4263	4269	9
4265	4264	4271	4273	9
4264	4265	4262	4272	9
4264	4263	4260	4266	9
4263	4264	4265	4270	9
4263	4264	4271	4273	9
4263	4260	4261	4268	9
4263	4260	4266	4267	9
4270	4265	4264	4271	9
4269	4263	4264	4271	9
4266	4260	4261	4268	9
4266	4260	4263	4269	9
4268	4261	4262	4272	9
4270	4265	4262	4272	9
536	537	538	541	9
536	537	538	548	9
536	539	540	541	9
536	539	540	547	9
537	538	541	540	9
537	538	541	546	9
537	538	548	550	9
537	538	548	551	9
537	536	539	540	9
537	536	539	545	9
537	536	542	543	9
538	537	536	539	9
538	537	536	542	9
538	541	540	539	9
538	541	540	547	9
538	548	551	552	9
541	538	537	544	9
541	538	548	550	9
541	538	548	551	9
541	540	539	545	9
541	540	547	549	9
540	541	538	548	9
540	539	536	542	9
539	540	541	546	9
539	540	547	549	9
539	536	537	544	9
539	536	542	543	9
546	541	540	547	9
545	539	540	547	9
542	536	537	544	9
542	536	539	545	9
544	537	538	548	9
546	541	538	548	9
550	548	551	552	9
569	568	567	570	9
569	568	567	573	9
569	572	571	570	9
569	572	571	578	9
569	579	582	583	9
568	567	570	571	9
568	567	570	576	9
568	567	573	574	9
568	569	572	571	9
568	569	572	577	9
568	569	579	581	9
568	569	579	582	9
567	568	569	572	9
567	568	569	579	9
567	570	571	572	9
567	570	571	578	9
570	567	568	575	9
570	567	573	574	9
570	571	572	577	9
570	571	578	580	9
571	570	567	573	9
571	572	569	579	9
572	571	570	576	9
572	571	578	580	9
572	569	568	575	9
572	569	579	581	9
572	569	579	582	9
576	570	571	578	9
577	572	571	578	9
575	568	569	579	9
577	572	569	579	9
573	567	568	575	9
573	567	570	576	9
581	579	582	583	9
4275	4278	4279	4280	9
4275	4278	4279	4286	9
4275	4276	4277	4280	9
4275	4276	4277	4287	9
4277	4280	4279	4278	9
4278	4279	4280	4285	9
4278	4279	4286	4288	9
4277	4276	4275	4278	9
4278	4275	4276	4283	9
4278	4275	4281	4282	9
4276	4275	4278	4279	9
4279	4278	4275	4281	9
4276	4277	4280	4279	9
4279	4280	4277	4287	9
4280	4279	4278	4284	9
4280	4279	4286	4288	9
4280	4277	4276	4283	9
4280	4277	4287	4289	9
4277	4280	4279	4286	9
4277	4276	4275	4281	9
4276	4277	4280	4285	9
4276	4277	4287	4289	9
4276	4275	4278	4284	9
4276	4275	4281	4282	9
4285	4280	4277	4287	9
4283	4276	4277	4287	9
4281	4275	4278	4284	9
4281	4275	4276	4283	9
4284	4278	4279	4286	9
4285	4280	4279	4286	9
4306	4309	4308	4307	9
4306	4309	4308	4315	9
4306	4305	4304	4307	9
4306	4305	4304	4310	9
4304	4307	4308	4309	9
4309	4308	4307	4313	9
4309	4308	4315	4317	9
4304	4305	4306	4309	9
4309	4306	4305	4312	9
4309	4306	4316	4318	9
4305	4306	4309	4308	9
4308	4309	4306	4316	9
4305	4304	4307	4308	9
4308	4307	4304	4310	9
4307	4308	4309	4314	9
4307	4308	4315	4317	9
4307	4304	4305	4312	9
4307	4304	4310	4311	9
4304	4307	4308	4315	9
4304	4305	4306	4316	9
4305	4304	4307	4313	9
4305	4304	4310	4311	9
4305	4306	4309	4314	9
4305	4306	4316	4318	9
4310	4304	4307	4313	9
4310	4304	4305	4312	9
4314	4309	4306	4316	9
4312	4305	4306	4316	9
4314	4309	4308	4315	9
4313	4307	4308	4315	9
598	599	600	603	9
598	599	600	610	9
598	601	602	603	9
598	601	602	609	9
599	600	603	602	9
599	600	603	608	9
599	600	610	612	9
599	600	610	613	9
599	598	601	602	9
599	598	601	607	9
599	598	604	605	9
600	599	598	601	9
600	599	598	604	9
600	603	602	601	9
600	603	602	609	9
600	610	613	614	9
603	600	599	606	9
603	600	610	612	9
603	600	610	613	9
603	602	601	607	9
603	602	609	611	9
602	603	600	610	9
602	601	598	604	9
601	602	603	608	9
601	602	609	611	9
601	598	599	606	9
601	598	604	605	9
608	603	602	609	9
607	601	602	609	9
604	598	599	606	9
604	598	601	607	9
606	599	600	610	9
608	603	600	610	9
612	610	613	614	9
4333	4336	4337	4338	9
4333	4336	4337	4344	9
4333	4334	4335	4338	9
4333	4334	4335	4345	9
4335	4338	4337	4336	9
4336	4337	4338	4343	9
4336	4337	4344	4346	9
4335	4334	4333	4336	9
4336	4333	4334	4341	9
4336	4333	4339	4340	9
4334	4333	4336	4337	9
4337	4336	4333	4339	9
4334	4335	4338	4337	9
4337	4338	4335	4345	9
4338	4337	4336	4342	9
4338	4337	4344	4346	9
4338	4335	4334	4341	9
4338	4335	4345	4347	9
4335	4338	4337	4344	9
4335	4334	4333	4339	9
4334	4335	4338	4343	9
4334	4335	4345	4347	9
4334	4333	4336	4342	9
4334	4333	4339	4340	9
4343	4338	4335	4345	9
4341	4334	4335	4345	9
4339	4333	4336	4342	9
4339	4333	4334	4341	9
4342	4336	4337	4344	9
4343	4338	4337	4344	9
629	630	631	634	9
629	630	631	641	9
629	632	633	634	9
629	632	633	640	9
630	631	634	633	9
630	631	634	639	9
630	631	641	643	9
630	631	641	644	9
630	629	632	633	9
630	629	632	638	9
630	629	635	636	9
631	630	629	632	9
631	630	629	635	9
631	634	633	632	9
631	634	633	640	9
631	641	644	645	9
634	631	630	637	9
634	631	641	643	9
634	631	641	644	9
634	633	632	638	9
634	633	640	642	9
633	634	631	641	9
633	632	629	635	9
632	633	634	639	9
632	633	640	642	9
632	629	630	637	9
632	629	635	636	9
639	634	633	640	9
638	632	633	640	9
635	629	630	637	9
635	629	632	638	9
637	630	631	641	9
639	634	631	641	9
643	641	644	645	9
4362	4365	4366	4367	9
4362	4365	4366	4373	9
4362	4363	4364	4367	9
4362	4363	4364	4374	9
4364	4367	4366	4365	9
4365	4366	4367	4372	9
4365	4366	4373	4375	9
4364	4363	4362	4365	9
4365	4362	4363	4370	9
4365	4362	4368	4369	9
4363	4362	4365	4366	9
4366	4365	4362	4368	9
4363	4364	4367	4366	9
4366	4367	4364	4374	9
4367	4366	4365	4371	9
4367	4366	4373	4375	9
4367	4364	4363	4370	9
4367	4364	4374	4376	9
4364	4367	4366	4373	9
4364	4363	4362	4368	9
4363	4364	4367	4372	9
4363	4364	4374	4376	9
4363	4362	4365	4371	9
4363	4362	4368	4369	9
4372	4367	4364	4374	9
4370	4363	4364	4374	9
4368	4362	4365	4371	9
4368	4362	4363	4370	9
4371	4365	4366	4373	9
4372	4367	4366	4373	9
4377	4378	4379	4382	9
4377	4378	4379	4389	9
4377	4380	4381	4382	9
4377	4380	4381	4388	9
4378	4379	4382	4381	9
4378	4379	4382	4387	9
4378	4379	4389	4391	9
4378	4377	4380	4381	9
4378	4377	4380	4386	9
4378	4377	4383	4384	9
4379	4378	4377	4380	9
4379	4378	4377	4383	9
4379	4382	4381	4380	9
4379	4382	4381	4388	9
4382	4379	4378	4385	9
4382	4379	4389	4391	9
4382	4381	4380	4386	9
4382	4381	4388	4390	9
4381	4382	4379	4389	9
4381	4380	4377	4383	9
4380	4381	4382	4387	9
4380	4381	4388	4390	9
4380	4377	4378	4385	9
4380	4377	4383	4384	9
4387	4382	4381	4388	9
4386	4380	4381	4388	9
4383	4377	4378	4385	9
4383	4377	4380	4386	9
4385	4378	4379	4389	9
4387	4382	4379	4389	9
4406	4407	4408	4411	9
4406	4407	4408	4418	9
4406	4409	4410	4411	9
4406	4409	4410	4417	9
4407	4408	4411	4410	9
4407	4408	4411	4416	9
4407	4408	4418	4420	9
4407	4406	4409	4410	9
4407	4406	4409	4415	9
4407	4406	4412	4413	9
4408	4407	4406	4409	9
4408	4407	4406	4412	9
4408	4411	4410	4409	9
4408	4411	4410	4417	9
4411	4408	4407	4414	9
4411	4408	4418	4420	9
4411	4410	4409	4415	9
4411	4410	4417	4419	9
4410	4411	4408	4418	9
4410	4409	4406	4412	9
4409	4410	4411	4416	9
4409	4410	4417	4419	9
4409	4406	4407	4414	9
4409	4406	4412	4413	9
4416	4411	4410	4417	9
4415	4409	4410	4417	9
4412	4406	4407	4414	9
4412	4406	4409	4415	9
4414	4407	4408	4418	9
4416	4411	4408	4418	9
4435	4436	4437	4440	9
4435	4436	4437	4447	9
4435	4438	4439	4440	9
4435	4438	4439	4446	9
4439	4440	4437	4436	9
4436	4437	4440	4445	9
4436	4437	4447	4449	9
4439	4438	4435	4436	9
4436	4435	4438	4444	9
4436	4435	4441	4442	9
4438	4435	4436	4437	9
4437	4436	4435	4441	9
4438	4439	4440	4437	9
4437	4440	4439	4446	9
4440	4437	4436	4443	9
4440	4437	4447	4449	9
4440	4439	4438	4444	9
4440	4439	4446	4448	9
4439	4440	4437	4447	9
4439	4438	4435	4441	9
4438	4439	4440	4445	9
4438	4439	4446	4448	9
4438	4435	4436	4443	9
4438	4435	4441	4442	9
4445	4440	4439	4446	9
4444	4438	4439	4446	9
4441	4435	4436	4443	9
4441	4435	4438	4444	9
4443	4436	4437	4447	9
4445	4440	4437	4447	9
4464	4467	4468	4469	9
4464	4467	4468	4475	9
4464	4465	4466	4469	9
4464	4465	4466	4476	9
4467	4468	4469	4466	9
4467	4468	4469	4474	9
4467	4468	4475	4477	9
4467	4464	4465	4466	9
4467	4464	4465	4472	9
4467	4464	4470	4471	9
4468	4467	4464	4465	9
4468	4467	4464	4470	9
4468	4469	4466	4465	9
4468	4469	4466	4476	9
4469	4468	4467	4473	9
4469	4468	4475	4477	9
4469	4466	4465	4472	9
4469	4466	4476	4478	9
4466	4469	4468	4475	9
4466	4465	4464	4470	9
4465	4466	4469	4474	9
4465	4466	4476	4478	9
4465	4464	4467	4473	9
4465	4464	4470	4471	9
4474	4469	4466	4476	9
4472	4465	4466	4476	9
4470	4464	4467	4473	9
4470	4464	4465	4472	9
4473	4467	4468	4475	9
4474	4469	4468	4475	9
662	661	660	663	9
662	661	660	666	9
662	665	664	663	9
662	665	664	671	9
662	672	675	676	9
661	660	663	664	9
661	660	663	669	9
661	660	666	667	9
661	662	665	664	9
661	662	665	670	9
661	662	672	674	9
661	662	672	675	9
660	661	662	665	9
660	661	662	672	9
660	663	664	665	9
660	663	664	671	9
663	660	661	668	9
663	660	666	667	9
663	664	665	670	9
663	664	671	673	9
664	663	660	666	9
664	665	662	672	9
665	664	663	669	9
665	664	671	673	9
665	662	661	668	9
665	662	672	674	9
665	662	672	675	9
669	663	664	671	9
670	665	664	671	9
668	661	662	672	9
670	665	662	672	9
666	660	661	668	9
666	660	663	669	9
674	672	675	676	9
4493	4494	4495	4498	9
4493	4494	4495	4505	9
4493	4496	4497	4498	9
4493	4496	4497	4504	9
4494	4495	4498	4497	9
4494	4495	4498	4503	9
4494	4495	4505	4507	9
4494	4493	4496	4497	9
4494	4493	4496	4502	9
4494	4493	4499	4500	9
4495	4494	4493	4496	9
4495	4494	4493	4499	9
4495	4498	4497	4496	9
4495	4498	4497	4504	9
4498	4495	4494	4501	9
4498	4495	4505	4507	9
4498	4497	4496	4502	9
4498	4497	4504	4506	9
4497	4498	4495	4505	9
4497	4496	4493	4499	9
4496	4497	4498	4503	9
4496	4497	4504	4506	9
4496	4493	4494	4501	9
4496	4493	4499	4500	9
4503	4498	4497	4504	9
4502	4496	4497	4504	9
4499	4493	4494	4501	9
4499	4493	4496	4502	9
4501	4494	4495	4505	9
4503	4498	4495	4505	9
691	694	695	696	9
691	694	695	702	9
691	692	693	696	9
691	692	693	703	9
693	696	695	694	9
694	695	696	701	9
694	695	702	704	9
693	692	691	694	9
694	691	692	699	9
694	691	697	698	9
692	691	694	695	9
695	694	691	697	9
692	693	696	695	9
695	696	693	703	9
696	695	694	700	9
696	695	702	704	9
696	693	692	699	9
696	693	703	705	9
696	693	703	706	9
693	696	695	702	9
693	692	691	697	9
693	703	706	707	9
692	693	696	701	9
692	693	703	705	9
692	693	703	706	9
692	691	694	700	9
692	691	697	698	9
701	696	693	703	9
699	692	693	703	9
697	691	694	700	9
697	691	692	699	9
700	694	695	702	9
701	696	695	702	9
705	703	706	707	9
4522	4525	4526	4527	9
4522	4525	4526	4533	9
4522	4523	4524	4527	9
4522	4523	4524	4534	9
4524	4527	4526	4525	9
4525	4526	4527	4532	9
4525	4526	4533	4535	9
4524	4523	4522	4525	9
4525	4522	4523	4530	9
4525	4522	4528	4529	9
4523	4522	4525	4526	9
4526	4525	4522	4528	9
4523	4524	4527	4526	9
4526	4527	4524	4534	9
4527	4526	4525	4531	9
4527	4526	4533	4535	9
4527	4524	4523	4530	9
4527	4524	4534	4536	9
4524	4527	4526	4533	9
4524	4523	4522	4528	9
4523	4524	4527	4532	9
4523	4524	4534	4536	9
4523	4522	4525	4531	9
4523	4522	4528	4529	9
4532	4527	4524	4534	9
4530	4523	4524	4534	9
4528	4522	4525	4531	9
4528	4522	4523	4530	9
4531	4525	4526	4533	9
4532	4527	4526	4533	9
4551	4554	4555	4556	9
4551	4554	4555	4562	9
4551	4552	4553	4556	9
4551	4552	4553	4563	9
4553	4556	4555	4554	9
4554	4555	4556	4561	9
4554	4555	4562	4564	9
4553	4552	4551	4554	9
4554	4551	4552	4559	9
4554	4551	4557	4558	9
4552	4551	4554	4555	9
4555	4554	4551	4557	9
4552	4553	4556	4555	9
4555	4556	4553	4563	9
4556	4555	4554	4560	9
4556	4555	4562	4564	9
4556	4553	4552	4559	9
4556	4553	4563	4565	9
4553	4556	4555	4562	9
4553	4552	4551	4557	9
4552	4553	4556	4561	9
4552	4553	4563	4565	9
4552	4551	4554	4560	9
4552	4551	4557	4558	9
4561	4556	4553	4563	9
4559	4552	4553	4563	9
4557	4551	4554	4560	9
4557	4551	4552	4559	9
4560	4554	4555	4562	9
4561	4556	4555	4562	9
4580	4583	4584	4585	9
4580	4583	4584	4591	9
4580	4581	4582	4585	9
4580	4581	4582	4592	9
4582	4585	4584	4583	9
4583	4584	4585	4590	9
4583	4584	4591	4593	9
4582	4581	4580	4583	9
4583	4580	4581	4588	9
4583	4580	4586	4587	9
4581	4580	4583	4584	9
4584	4583	4580	4586	9
4581	4582	4585	4584	9
4584	4585	4582	4592	9
4585	4584	4583	4589	9
4585	4584	4591	4593	9
4585	4582	4581	4588	9
4585	4582	4592	4594	9
4582	4585	4584	4591	9
4582	4581	4580	4586	9
4581	4582	4585	4590	9
4581	4582	4592	4594	9
4581	4580	4583	4589	9
4581	4580	4586	4587	9
4590	4585	4582	4592	9
4588	4581	4582	4592	9
4586	4580	4583	4589	9
4586	4580	4581	4588	9
4589	4583	4584	4591	9
4590	4585	4584	4591	9
4609	4610	4611	4614	9
4609	4610	4611	4621	9
4609	4612	4613	4614	9
4609	4612	4613	4620	9
4610	4611	4614	4613	9
4610	4611	4614	4619	9
4610	4611	4621	4623	9
4610	4609	4612	4613	9
4610	4609	4612	4618	9
4610	4609	4615	4616	9
4611	4610	4609	4612	9
4611	4610	4609	4615	9
4611	4614	4613	4612	9
4611	4614	4613	4620	9
4614	4611	4610	4617	9
4614	4611	4621	4623	9
4614	4613	4612	4618	9
4614	4613	4620	4622	9
4613	4614	4611	4621	9
4613	4612	4609	4615	9
4612	4613	4614	4619	9
4612	4613	4620	4622	9
4612	4609	4610	4617	9
4612	4609	4615	4616	9
4619	4614	4613	4620	9
4618	4612	4613	4620	9
4615	4609	4610	4617	9
4615	4609	4612	4618	9
4617	4610	4611	4621	9
4619	4614	4611	4621	9
722	725	726	727	9
722	725	726	733	9
722	723	724	727	9
722	723	724	734	9
724	727	726	725	9
725	726	727	732	9
725	726	733	735	9
724	723	722	725	9
725	722	723	730	9
725	722	728	729	9
723	722	725	726	9
726	725	722	728	9
723	724	727	726	9
726	727	724	734	9
727	726	725	731	9
727	726	733	735	9
727	724	723	730	9
727	724	734	736	9
727	724	734	737	9
724	727	726	733	9
724	723	722	728	9
724	734	737	738	9
723	724	727	732	9
723	724	734	736	9
723	724	734	737	9
723	722	725	731	9
723	722	728	729	9
732	727	724	734	9
730	723	724	734	9
728	722	725	731	9
728	722	723	730	9
731	725	726	733	9
732	727	726	733	9
736	734	737	738	9
753	756	757	758	9
753	756	757	764	9
753	754	755	758	9
753	754	755	765	9
755	758	757	756	9
756	757	758	763	9
756	757	764	766	9
755	754	753	756	9
756	753	754	761	9
756	753	759	760	9
754	753	756	757	9
757	756	753	759	9
754	755	758	757	9
757	758	755	765	9
758	757	756	762	9
758	757	764	766	9
758	755	754	761	9
758	755	765	767	9
758	755	765	768	9
755	758	757	764	9
755	754	753	759	9
755	765	768	769	9
754	755	758	763	9
754	755	765	767	9
754	755	765	768	9
754	753	756	762	9
754	753	759	760	9
763	758	755	765	9
761	754	755	765	9
759	753	756	762	9
759	753	754	761	9
762	756	757	764	9
763	758	757	764	9
767	765	768	769	9
784	785	786	789	9
784	785	786	796	9
784	787	788	789	9
784	787	788	795	9
785	786	789	788	9
785	786	789	794	9
785	786	796	798	9
785	786	796	799	9
785	784	787	788	9
785	784	787	793	9
785	784	790	791	9
786	785	784	787	9
786	785	784	790	9
786	789	788	787	9
786	789	788	795	9
786	796	799	800	9
789	786	785	792	9
789	786	796	798	9
789	786	796	799	9
789	788	787	793	9
789	788	795	797	9
788	789	786	796	9
788	787	784	790	9
787	788	789	794	9
787	788	795	797	9
787	784	785	792	9
787	784	790	791	9
794	789	788	795	9
793	787	788	795	9
790	784	785	792	9
790	784	787	793	9
792	785	786	796	9
794	789	786	796	9
798	796	799	800	9
4640	4639	4638	4641	9
4640	4639	4638	4644	9
4640	4643	4642	4641	9
4640	4643	4642	4649	9
4639	4638	4641	4642	9
4639	4638	4641	4647	9
4639	4638	4644	4645	9
4639	4640	4643	4642	9
4639	4640	4643	4648	9
4639	4640	4650	4652	9
4638	4639	4640	4643	9
4638	4639	4640	4650	9
4638	4641	4642	4643	9
4638	4641	4642	4649	9
4641	4638	4639	4646	9
4641	4638	4644	4645	9
4641	4642	4643	4648	9
4641	4642	4649	4651	9
4642	4641	4638	4644	9
4642	4643	4640	4650	9
4643	4642	4641	4647	9
4643	4642	4649	4651	9
4643	4640	4639	4646	9
4643	4640	4650	4652	9
4647	4641	4642	4649	9
4648	4643	4642	4649	9
4646	4639	4640	4650	9
4648	4643	4640	4650	9
4644	4638	4639	4646	9
4644	4638	4641	4647	9
4671	4672	4669	4668	9
4671	4672	4669	4679	9
4671	4670	4667	4668	9
4671	4670	4667	4673	9
4667	4668	4669	4672	9
4672	4669	4668	4675	9
4672	4669	4679	4681	9
4667	4670	4671	4672	9
4672	4671	4670	4676	9
4672	4671	4678	4680	9
4670	4671	4672	4669	9
4669	4672	4671	4678	9
4670	4667	4668	4669	9
4669	4668	4667	4673	9
4668	4669	4672	4677	9
4668	4669	4679	4681	9
4668	4667	4670	4676	9
4668	4667	4673	4674	9
4667	4668	4669	4679	9
4667	4670	4671	4678	9
4670	4667	4668	4675	9
4670	4667	4673	4674	9
4670	4671	4672	4677	9
4670	4671	4678	4680	9
4675	4668	4667	4673	9
4676	4670	4667	4673	9
4678	4671	4672	4677	9
4678	4671	4670	4676	9
4677	4672	4669	4679	9
4675	4668	4669	4679	9
4696	4697	4698	4701	9
4696	4697	4698	4708	9
4696	4699	4700	4701	9
4696	4699	4700	4707	9
4700	4701	4698	4697	9
4697	4698	4701	4706	9
4697	4698	4708	4710	9
4700	4699	4696	4697	9
4697	4696	4699	4705	9
4697	4696	4702	4703	9
4699	4696	4697	4698	9
4698	4697	4696	4702	9
4699	4700	4701	4698	9
4698	4701	4700	4707	9
4701	4698	4697	4704	9
4701	4698	4708	4710	9
4701	4700	4699	4705	9
4701	4700	4707	4709	9
4700	4701	4698	4708	9
4700	4699	4696	4702	9
4699	4700	4701	4706	9
4699	4700	4707	4709	9
4699	4696	4697	4704	9
4699	4696	4702	4703	9
4706	4701	4700	4707	9
4705	4699	4700	4707	9
4702	4696	4697	4704	9
4702	4696	4699	4705	9
4704	4697	4698	4708	9
4706	4701	4698	4708	9
38	37	36	41	9
38	37	36	34	9
38	39	40	41	9
38	39	40	42	9
40	41	36	37	9
37	36	41	50	9
37	36	34	35	9
37	36	34	33	9
40	39	38	37	9
37	38	39	49	9
37	38	44	45	9
37	38	44	46	9
39	38	37	36	9
36	37	38	44	9
39	40	41	36	9
36	41	40	42	9
36	34	33	47	9
41	36	37	48	9
41	36	34	35	9
41	36	34	33	9
41	40	39	49	9
41	40	42	43	9
40	41	36	34	9
40	39	38	44	9
39	40	41	50	9
39	40	42	43	9
39	38	37	48	9
39	38	44	45	9
39	38	44	46	9
42	40	41	50	9
42	40	39	49	9
48	37	38	44	9
49	39	38	44	9
48	37	36	34	9
50	41	36	34	9
35	34	33	47	9
4725	4726	4727	4730	9
4725	4726	4727	4737	9
4725	4728	4729	4730	9
4725	4728	4729	4736	9
4726	4727	4730	4729	9
4726	4727	4730	4735	9
4726	4727	4737	4739	9
4726	4725	4728	4729	9
4726	4725	4728	4734	9
4726	4725	4731	4732	9
4727	4726	4725	4728	9
4727	4726	4725	4731	9
4727	4730	4729	4728	9
4727	4730	4729	4736	9
4730	4727	4726	4733	9
4730	4727	4737	4739	9
4730	4729	4728	4734	9
4730	4729	4736	4738	9
4729	4730	4727	4737	9
4729	4728	4725	4731	9
4728	4729	4730	4735	9
4728	4729	4736	4738	9
4728	4725	4726	4733	9
4728	4725	4731	4732	9
4735	4730	4729	4736	9
4734	4728	4729	4736	9
4731	4725	4726	4733	9
4731	4725	4728	4734	9
4733	4726	4727	4737	9
4735	4730	4727	4737	9
4754	4757	4758	4759	9
4754	4757	4758	4765	9
4754	4755	4756	4759	9
4754	4755	4756	4766	9
4756	4759	4758	4757	9
4757	4758	4759	4764	9
4757	4758	4765	4767	9
4756	4755	4754	4757	9
4757	4754	4755	4762	9
4757	4754	4760	4761	9
4755	4754	4757	4758	9
4758	4757	4754	4760	9
4755	4756	4759	4758	9
4758	4759	4756	4766	9
4759	4758	4757	4763	9
4759	4758	4765	4767	9
4759	4756	4755	4762	9
4759	4756	4766	4768	9
4756	4759	4758	4765	9
4756	4755	4754	4760	9
4755	4756	4759	4764	9
4755	4756	4766	4768	9
4755	4754	4757	4763	9
4755	4754	4760	4761	9
4764	4759	4756	4766	9
4762	4755	4756	4766	9
4760	4754	4757	4763	9
4760	4754	4755	4762	9
4763	4757	4758	4765	9
4764	4759	4758	4765	9
817	816	815	818	9
817	816	815	821	9
817	820	819	818	9
817	820	819	826	9
817	827	830	831	9
816	815	818	819	9
816	815	818	824	9
816	815	821	822	9
816	817	820	819	9
816	817	820	825	9
816	817	827	829	9
816	817	827	830	9
815	816	817	820	9
815	816	817	827	9
815	818	819	820	9
815	818	819	826	9
818	815	816	823	9
818	815	821	822	9
818	819	820	825	9
818	819	826	828	9
819	818	815	821	9
819	820	817	827	9
820	819	818	824	9
820	819	826	828	9
820	817	816	823	9
820	817	827	829	9
820	817	827	830	9
824	818	819	826	9
825	820	819	826	9
823	816	817	827	9
825	820	817	827	9
821	815	816	823	9
821	815	818	824	9
829	827	830	831	9
4783	4786	4787	4788	9
4783	4786	4787	4794	9
4783	4784	4785	4788	9
4783	4784	4785	4795	9
4785	4788	4787	4786	9
4786	4787	4788	4793	9
4786	4787	4794	4796	9
4785	4784	4783	4786	9
4786	4783	4784	4791	9
4786	4783	4789	4790	9
4784	4783	4786	4787	9
4787	4786	4783	4789	9
4784	4785	4788	4787	9
4787	4788	4785	4795	9
4788	4787	4786	4792	9
4788	4787	4794	4796	9
4788	4785	4784	4791	9
4788	4785	4795	4797	9
4785	4788	4787	4794	9
4785	4784	4783	4789	9
4784	4785	4788	4793	9
4784	4785	4795	4797	9
4784	4783	4786	4792	9
4784	4783	4789	4790	9
4793	4788	4785	4795	9
4791	4784	4785	4795	9
4789	4783	4786	4792	9
4789	4783	4784	4791	9
4792	4786	4787	4794	9
4793	4788	4787	4794	9
4812	4815	4816	4817	9
4812	4815	4816	4823	9
4812	4813	4814	4817	9
4812	4813	4814	4824	9
4814	4817	4816	4815	9
4815	4816	4817	4822	9
4815	4816	4823	4825	9
4814	4813	4812	4815	9
4815	4812	4813	4820	9
4815	4812	4818	4819	9
4813	4812	4815	4816	9
4816	4815	4812	4818	9
4813	4814	4817	4816	9
4816	4817	4814	4824	9
4817	4816	4815	4821	9
4817	4816	4823	4825	9
4817	4814	4813	4820	9
4817	4814	4824	4826	9
4814	4817	4816	4823	9
4814	4813	4812	4818	9
4813	4814	4817	4822	9
4813	4814	4824	4826	9
4813	4812	4815	4821	9
4813	4812	4818	4819	9
4822	4817	4814	4824	9
4820	4813	4814	4824	9
4818	4812	4815	4821	9
4818	4812	4813	4820	9
4821	4815	4816	4823	9
4822	4817	4816	4823	9
848	851	850	849	9
848	851	850	857	9
848	847	846	849	9
848	847	846	852	9
848	858	861	862	9
846	849	850	851	9
851	850	849	855	9
851	850	857	859	9
846	847	848	851	9
851	848	847	854	9
851	848	858	860	9
851	848	858	861	9
847	848	851	850	9
850	851	848	858	9
847	846	849	850	9
850	849	846	852	9
849	850	851	856	9
849	850	857	859	9
849	846	847	854	9
849	846	852	853	9
846	849	850	857	9
846	847	848	858	9
847	846	849	855	9
847	846	852	853	9
847	848	851	856	9
847	848	858	860	9
847	848	858	861	9
852	846	849	855	9
852	846	847	854	9
856	851	848	858	9
854	847	848	858	9
856	851	850	857	9
855	849	850	857	9
860	858	861	862	9
4841	4844	4845	4846	9
4841	4844	4845	4852	9
4841	4842	4843	4846	9
4841	4842	4843	4853	9
4843	4846	4845	4844	9
4844	4845	4846	4851	9
4844	4845	4852	4854	9
4843	4842	4841	4844	9
4844	4841	4842	4849	9
4844	4841	4847	4848	9
4842	4841	4844	4845	9
4845	4844	4841	4847	9
4842	4843	4846	4845	9
4845	4846	4843	4853	9
4846	4845	4844	4850	9
4846	4845	4852	4854	9
4846	4843	4842	4849	9
4846	4843	4853	4855	9
4843	4846	4845	4852	9
4843	4842	4841	4847	9
4842	4843	4846	4851	9
4842	4843	4853	4855	9
4842	4841	4844	4850	9
4842	4841	4847	4848	9
4851	4846	4843	4853	9
4849	4842	4843	4853	9
4847	4841	4844	4850	9
4847	4841	4842	4849	9
4850	4844	4845	4852	9
4851	4846	4845	4852	9
4856	4859	4860	4861	9
4856	4859	4860	4867	9
4856	4857	4858	4861	9
4856	4857	4858	4868	9
4858	4861	4860	4859	9
4859	4860	4861	4866	9
4859	4860	4867	4869	9
4858	4857	4856	4859	9
4859	4856	4857	4864	9
4859	4856	4862	4863	9
4857	4856	4859	4860	9
4860	4859	4856	4862	9
4857	4858	4861	4860	9
4860	4861	4858	4868	9
4861	4860	4859	4865	9
4861	4860	4867	4869	9
4861	4858	4857	4864	9
4861	4858	4868	4870	9
4858	4861	4860	4867	9
4858	4857	4856	4862	9
4857	4858	4861	4866	9
4857	4858	4868	4870	9
4857	4856	4859	4865	9
4857	4856	4862	4863	9
4866	4861	4858	4868	9
4864	4857	4858	4868	9
4862	4856	4859	4865	9
4862	4856	4857	4864	9
4865	4859	4860	4867	9
4866	4861	4860	4867	9
4885	4886	4887	4890	9
4885	4886	4887	4897	9
4885	4888	4889	4890	9
4885	4888	4889	4896	9
4889	4890	4887	4886	9
4886	4887	4890	4895	9
4886	4887	4897	4899	9
4889	4888	4885	4886	9
4886	4885	4888	4894	9
4886	4885	4891	4892	9
4888	4885	4886	4887	9
4887	4886	4885	4891	9
4888	4889	4890	4887	9
4887	4890	4889	4896	9
4890	4887	4886	4893	9
4890	4887	4897	4899	9
4890	4889	4888	4894	9
4890	4889	4896	4898	9
4889	4890	4887	4897	9
4889	4888	4885	4891	9
4888	4889	4890	4895	9
4888	4889	4896	4898	9
4888	4885	4886	4893	9
4888	4885	4891	4892	9
4895	4890	4889	4896	9
4894	4888	4889	4896	9
4891	4885	4886	4893	9
4891	4885	4888	4894	9
4893	4886	4887	4897	9
4895	4890	4887	4897	9
4914	4917	4918	4919	9
4914	4917	4918	4925	9
4914	4915	4916	4919	9
4914	4915	4916	4926	9
4917	4918	4919	4916	9
4917	4918	4919	4924	9
4917	4918	4925	4927	9
4917	4914	4915	4916	9
4917	4914	4915	4922	9
4917	4914	4920	4921	9
4918	4917	4914	4915	9
4918	4917	4914	4920	9
4918	4919	4916	4915	9
4918	4919	4916	4926	9
4919	4918	4917	4923	9
4919	4918	4925	4927	9
4919	4916	4915	4922	9
4919	4916	4926	4928	9
4916	4919	4918	4925	9
4916	4915	4914	4920	9
4915	4916	4919	4924	9
4915	4916	4926	4928	9
4915	4914	4917	4923	9
4915	4914	4920	4921	9
4924	4919	4916	4926	9
4922	4915	4916	4926	9
4920	4914	4917	4923	9
4920	4914	4915	4922	9
4923	4917	4918	4925	9
4924	4919	4918	4925	9
4943	4944	4945	4948	9
4943	4944	4945	4955	9
4943	4946	4947	4948	9
4943	4946	4947	4954	9
4944	4945	4948	4947	9
4944	4945	4948	4953	9
4944	4945	4955	4957	9
4944	4943	4946	4947	9
4944	4943	4946	4952	9
4944	4943	4949	4950	9
4945	4944	4943	4946	9
4945	4944	4943	4949	9
4945	4948	4947	4946	9
4945	4948	4947	4954	9
4948	4945	4944	4951	9
4948	4945	4955	4957	9
4948	4947	4946	4952	9
4948	4947	4954	4956	9
4947	4948	4945	4955	9
4947	4946	4943	4949	9
4946	4947	4948	4953	9
4946	4947	4954	4956	9
4946	4943	4944	4951	9
4946	4943	4949	4950	9
4953	4948	4947	4954	9
4952	4946	4947	4954	9
4949	4943	4944	4951	9
4949	4943	4946	4952	9
4951	4944	4945	4955	9
4953	4948	4945	4955	9
893	898	897	896	9
893	898	897	899	9
893	894	895	896	9
893	894	895	901	9
895	896	897	898	9
898	897	896	905	9
898	897	899	900	9
895	894	893	898	9
898	893	894	904	9
898	893	891	892	9
894	893	898	897	9
897	898	893	891	9
894	895	896	897	9
897	896	895	901	9
896	897	898	906	9
896	897	899	900	9
896	895	894	904	9
896	895	901	902	9
896	895	901	903	9
895	896	897	899	9
895	894	893	891	9
894	895	896	905	9
894	895	901	902	9
894	895	901	903	9
894	893	898	906	9
894	893	891	892	9
905	896	895	901	9
904	894	895	901	9
891	893	898	906	9
891	893	894	904	9
906	898	897	899	9
905	896	897	899	9
4972	4973	4974	4977	9
4972	4973	4974	4984	9
4972	4975	4976	4977	9
4972	4975	4976	4983	9
4973	4974	4977	4976	9
4973	4974	4977	4982	9
4973	4974	4984	4986	9
4973	4972	4975	4976	9
4973	4972	4975	4981	9
4973	4972	4978	4979	9
4974	4973	4972	4975	9
4974	4973	4972	4978	9
4974	4977	4976	4975	9
4974	4977	4976	4983	9
4977	4974	4973	4980	9
4977	4974	4984	4986	9
4977	4976	4975	4981	9
4977	4976	4983	4985	9
4976	4977	4974	4984	9
4976	4975	4972	4978	9
4975	4976	4977	4982	9
4975	4976	4983	4985	9
4975	4972	4973	4980	9
4975	4972	4978	4979	9
4982	4977	4976	4983	9
4981	4975	4976	4983	9
4978	4972	4973	4980	9
4978	4972	4975	4981	9
4980	4973	4974	4984	9
4982	4977	4974	4984	9
907	910	911	912	9
907	910	911	918	9
907	908	909	912	9
907	908	909	919	9
909	912	911	910	9
910	911	912	917	9
910	911	918	920	9
909	908	907	910	9
910	907	908	915	9
910	907	913	914	9
908	907	910	911	9
911	910	907	913	9
908	909	912	911	9
911	912	909	919	9
912	911	910	916	9
912	911	918	920	9
912	909	908	915	9
912	909	919	921	9
912	909	919	922	9
909	912	911	918	9
909	908	907	913	9
909	919	922	923	9
908	909	912	917	9
908	909	919	921	9
908	909	919	922	9
908	907	910	916	9
908	907	913	914	9
917	912	909	919	9
915	908	909	919	9
913	907	910	916	9
913	907	908	915	9
916	910	911	918	9
917	912	911	918	9
921	919	922	923	9
4987	4988	4989	4992	9
4987	4988	4989	4999	9
4987	4990	4991	4992	9
4987	4990	4991	4998	9
4988	4989	4992	4991	9
4988	4989	4992	4997	9
4988	4989	4999	5001	9
4988	4987	4990	4991	9
4988	4987	4990	4996	9
4988	4987	4993	4994	9
4989	4988	4987	4990	9
4989	4988	4987	4993	9
4989	4992	4991	4990	9
4989	4992	4991	4998	9
4992	4989	4988	4995	9
4992	4989	4999	5001	9
4992	4991	4990	4996	9
4992	4991	4998	5000	9
4991	4992	4989	4999	9
4991	4990	4987	4993	9
4990	4991	4992	4997	9
4990	4991	4998	5000	9
4990	4987	4988	4995	9
4990	4987	4993	4994	9
4997	4992	4991	4998	9
4996	4990	4991	4998	9
4993	4987	4988	4995	9
4993	4987	4990	4996	9
4995	4988	4989	4999	9
4997	4992	4989	4999	9
5016	5017	5018	5021	9
5016	5017	5018	5028	9
5016	5019	5020	5021	9
5016	5019	5020	5027	9
5017	5018	5021	5020	9
5017	5018	5021	5026	9
5017	5018	5028	5030	9
5017	5016	5019	5020	9
5017	5016	5019	5025	9
5017	5016	5022	5023	9
5018	5017	5016	5019	9
5018	5017	5016	5022	9
5018	5021	5020	5019	9
5018	5021	5020	5027	9
5021	5018	5017	5024	9
5021	5018	5028	5030	9
5021	5020	5019	5025	9
5021	5020	5027	5029	9
5020	5021	5018	5028	9
5020	5019	5016	5022	9
5019	5020	5021	5026	9
5019	5020	5027	5029	9
5019	5016	5017	5024	9
5019	5016	5022	5023	9
5026	5021	5020	5027	9
5025	5019	5020	5027	9
5022	5016	5017	5024	9
5022	5016	5019	5025	9
5024	5017	5018	5028	9
5026	5021	5018	5028	9
938	939	940	943	9
938	939	940	950	9
938	941	942	943	9
938	941	942	949	9
939	940	943	942	9
939	940	943	948	9
939	940	950	952	9
939	940	950	953	9
939	938	941	942	9
939	938	941	947	9
939	938	944	945	9
940	939	938	941	9
940	939	938	944	9
940	943	942	941	9
940	943	942	949	9
940	950	953	954	9
943	940	939	946	9
943	940	950	952	9
943	940	950	953	9
943	942	941	947	9
943	942	949	951	9
942	943	940	950	9
942	941	938	944	9
941	942	943	948	9
941	942	949	951	9
941	938	939	946	9
941	938	944	945	9
948	943	942	949	9
947	941	942	949	9
944	938	939	946	9
944	938	941	947	9
946	939	940	950	9
948	943	940	950	9
952	950	953	954	9
5045	5046	5047	5050	9
5045	5046	5047	5057	9
5045	5048	5049	5050	9
5045	5048	5049	5056	9
5046	5047	5050	5049	9
5046	5047	5050	5055	9
5046	5047	5057	5059	9
5046	5045	5048	5049	9
5046	5045	5048	5054	9
5046	5045	5051	5052	9
5047	5046	5045	5048	9
5047	5046	5045	5051	9
5047	5050	5049	5048	9
5047	5050	5049	5056	9
5050	5047	5046	5053	9
5050	5047	5057	5059	9
5050	5049	5048	5054	9
5050	5049	5056	5058	9
5049	5050	5047	5057	9
5049	5048	5045	5051	9
5048	5049	5050	5055	9
5048	5049	5056	5058	9
5048	5045	5046	5053	9
5048	5045	5051	5052	9
5055	5050	5049	5056	9
5054	5048	5049	5056	9
5051	5045	5046	5053	9
5051	5045	5048	5054	9
5053	5046	5047	5057	9
5055	5050	5047	5057	9
5060	5061	5062	5065	9
5060	5061	5062	5072	9
5060	5063	5064	5065	9
5060	5063	5064	5071	9
5061	5062	5065	5064	9
5061	5062	5065	5070	9
5061	5062	5072	5074	9
5061	5060	5063	5064	9
5061	5060	5063	5069	9
5061	5060	5066	5067	9
5062	5061	5060	5063	9
5062	5061	5060	5066	9
5062	5065	5064	5063	9
5062	5065	5064	5071	9
5065	5062	5061	5068	9
5065	5062	5072	5074	9
5065	5064	5063	5069	9
5065	5064	5071	5073	9
5064	5065	5062	5072	9
5064	5063	5060	5066	9
5063	5064	5065	5070	9
5063	5064	5071	5073	9
5063	5060	5061	5068	9
5063	5060	5066	5067	9
5070	5065	5064	5071	9
5069	5063	5064	5071	9
5066	5060	5061	5068	9
5066	5060	5063	5069	9
5068	5061	5062	5072	9
5070	5065	5062	5072	9
5089	5090	5091	5094	9
5089	5090	5091	5101	9
5089	5092	5093	5094	9
5089	5092	5093	5100	9
5093	5094	5091	5090	9
5090	5091	5094	5099	9
5090	5091	5101	5103	9
5093	5092	5089	5090	9
5090	5089	5092	5098	9
5090	5089	5095	5096	9
5092	5089	5090	5091	9
5091	5090	5089	5095	9
5092	5093	5094	5091	9
5091	5094	5093	5100	9
5094	5091	5090	5097	9
5094	5091	5101	5103	9
5094	5093	5092	5098	9
5094	5093	5100	5102	9
5093	5094	5091	5101	9
5093	5092	5089	5095	9
5092	5093	5094	5099	9
5092	5093	5100	5102	9
5092	5089	5090	5097	9
5092	5089	5095	5096	9
5099	5094	5093	5100	9
5098	5092	5093	5100	9
5095	5089	5090	5097	9
5095	5089	5092	5098	9
5097	5090	5091	5101	9
5099	5094	5091	5101	9
5118	5119	5120	5123	9
5118	5119	5120	5130	9
5118	5121	5122	5123	9
5118	5121	5122	5129	9
5122	5123	5120	5119	9
5119	5120	5123	5128	9
5119	5120	5130	5132	9
5122	5121	5118	5119	9
5119	5118	5121	5127	9
5119	5118	5124	5125	9
5121	5118	5119	5120	9
5120	5119	5118	5124	9
5121	5122	5123	5120	9
5120	5123	5122	5129	9
5123	5120	5119	5126	9
5123	5120	5130	5132	9
5123	5122	5121	5127	9
5123	5122	5129	5131	9
5122	5123	5120	5130	9
5122	5121	5118	5124	9
5121	5122	5123	5128	9
5121	5122	5129	5131	9
5121	5118	5119	5126	9
5121	5118	5124	5125	9
5128	5123	5122	5129	9
5127	5121	5122	5129	9
5124	5118	5119	5126	9
5124	5118	5121	5127	9
5126	5119	5120	5130	9
5128	5123	5120	5130	9
5147	5150	5151	5152	9
5147	5150	5151	5158	9
5147	5148	5149	5152	9
5147	5148	5149	5159	9
5149	5152	5151	5150	9
5150	5151	5152	5157	9
5150	5151	5158	5160	9
5149	5148	5147	5150	9
5150	5147	5148	5155	9
5150	5147	5153	5154	9
5148	5147	5150	5151	9
5151	5150	5147	5153	9
5148	5149	5152	5151	9
5151	5152	5149	5159	9
5152	5151	5150	5156	9
5152	5151	5158	5160	9
5152	5149	5148	5155	9
5152	5149	5159	5161	9
5149	5152	5151	5158	9
5149	5148	5147	5153	9
5148	5149	5152	5157	9
5148	5149	5159	5161	9
5148	5147	5150	5156	9
5148	5147	5153	5154	9
5157	5152	5149	5159	9
5155	5148	5149	5159	9
5153	5147	5150	5156	9
5153	5147	5148	5155	9
5156	5150	5151	5158	9
5157	5152	5151	5158	9
5176	5179	5180	5181	9
5176	5179	5180	5187	9
5176	5177	5178	5181	9
5176	5177	5178	5188	9
5178	5181	5180	5179	9
5179	5180	5181	5186	9
5179	5180	5187	5189	9
5178	5177	5176	5179	9
5179	5176	5177	5184	9
5179	5176	5182	5183	9
5177	5176	5179	5180	9
5180	5179	5176	5182	9
5177	5178	5181	5180	9
5180	5181	5178	5188	9
5181	5180	5179	5185	9
5181	5180	5187	5189	9
5181	5178	5177	5184	9
5181	5178	5188	5190	9
5178	5181	5180	5187	9
5178	5177	5176	5182	9
5177	5178	5181	5186	9
5177	5178	5188	5190	9
5177	5176	5179	5185	9
5177	5176	5182	5183	9
5186	5181	5178	5188	9
5184	5177	5178	5188	9
5182	5176	5179	5185	9
5182	5176	5177	5184	9
5185	5179	5180	5187	9
5186	5181	5180	5187	9
969	972	973	974	9
969	972	973	980	9
969	970	971	974	9
969	970	971	981	9
971	974	973	972	9
972	973	974	979	9
972	973	980	982	9
971	970	969	972	9
972	969	970	977	9
972	969	975	976	9
970	969	972	973	9
973	972	969	975	9
970	971	974	973	9
973	974	971	981	9
974	973	972	978	9
974	973	980	982	9
974	971	970	977	9
974	971	981	983	9
974	971	981	984	9
971	974	973	980	9
971	970	969	975	9
971	981	984	985	9
970	971	974	979	9
970	971	981	983	9
970	971	981	984	9
970	969	972	978	9
970	969	975	976	9
979	974	971	981	9
977	970	971	981	9
975	969	972	978	9
975	969	970	977	9
978	972	973	980	9
979	974	973	980	9
983	981	984	985	9
1000	1001	1002	1005	9
1000	1001	1002	1012	9
1000	1003	1004	1005	9
1000	1003	1004	1011	9
1001	1002	1005	1004	9
1001	1002	1005	1010	9
1001	1002	1012	1014	9
1001	1002	1012	1015	9
1001	1000	1003	1004	9
1001	1000	1003	1009	9
1001	1000	1006	1007	9
1002	1001	1000	1003	9
1002	1001	1000	1006	9
1002	1005	1004	1003	9
1002	1005	1004	1011	9
1002	1012	1015	1016	9
1005	1002	1001	1008	9
1005	1002	1012	1014	9
1005	1002	1012	1015	9
1005	1004	1003	1009	9
1005	1004	1011	1013	9
1004	1005	1002	1012	9
1004	1003	1000	1006	9
1003	1004	1005	1010	9
1003	1004	1011	1013	9
1003	1000	1001	1008	9
1003	1000	1006	1007	9
1010	1005	1004	1011	9
1009	1003	1004	1011	9
1006	1000	1001	1008	9
1006	1000	1003	1009	9
1008	1001	1002	1012	9
1010	1005	1002	1012	9
1014	1012	1015	1016	9
5205	5208	5209	5210	9
5205	5208	5209	5216	9
5205	5206	5207	5210	9
5205	5206	5207	5217	9
5207	5210	5209	5208	9
5208	5209	5210	5215	9
5208	5209	5216	5218	9
5207	5206	5205	5208	9
5208	5205	5206	5213	9
5208	5205	5211	5212	9
5206	5205	5208	5209	9
5209	5208	5205	5211	9
5206	5207	5210	5209	9
5209	5210	5207	5217	9
5210	5209	5208	5214	9
5210	5209	5216	5218	9
5210	5207	5206	5213	9
5210	5207	5217	5219	9
5207	5210	5209	5216	9
5207	5206	5205	5211	9
5206	5207	5210	5215	9
5206	5207	5217	5219	9
5206	5205	5208	5214	9
5206	5205	5211	5212	9
5215	5210	5207	5217	9
5213	5206	5207	5217	9
5211	5205	5208	5214	9
5211	5205	5206	5213	9
5214	5208	5209	5216	9
5215	5210	5209	5216	9
5234	5237	5238	5239	9
5234	5237	5238	5245	9
5234	5235	5236	5239	9
5234	5235	5236	5246	9
5236	5239	5238	5237	9
5237	5238	5239	5244	9
5237	5238	5245	5247	9
5236	5235	5234	5237	9
5237	5234	5235	5242	9
5237	5234	5240	5241	9
5235	5234	5237	5238	9
5238	5237	5234	5240	9
5235	5236	5239	5238	9
5238	5239	5236	5246	9
5239	5238	5237	5243	9
5239	5238	5245	5247	9
5239	5236	5235	5242	9
5239	5236	5246	5248	9
5236	5239	5238	5245	9
5236	5235	5234	5240	9
5235	5236	5239	5244	9
5235	5236	5246	5248	9
5235	5234	5237	5243	9
5235	5234	5240	5241	9
5244	5239	5236	5246	9
5242	5235	5236	5246	9
5240	5234	5237	5243	9
5240	5234	5235	5242	9
5243	5237	5238	5245	9
5244	5239	5238	5245	9
5263	5264	5265	5268	9
5263	5264	5265	5275	9
5263	5266	5267	5268	9
5263	5266	5267	5274	9
5264	5265	5268	5267	9
5264	5265	5268	5273	9
5264	5265	5275	5277	9
5264	5263	5266	5267	9
5264	5263	5266	5272	9
5264	5263	5269	5270	9
5265	5264	5263	5266	9
5265	5264	5263	5269	9
5265	5268	5267	5266	9
5265	5268	5267	5274	9
5268	5265	5264	5271	9
5268	5265	5275	5277	9
5268	5267	5266	5272	9
5268	5267	5274	5276	9
5267	5268	5265	5275	9
5267	5266	5263	5269	9
5266	5267	5268	5273	9
5266	5267	5274	5276	9
5266	5263	5264	5271	9
5266	5263	5269	5270	9
5273	5268	5267	5274	9
5272	5266	5267	5274	9
5269	5263	5264	5271	9
5269	5263	5266	5272	9
5271	5264	5265	5275	9
5273	5268	5265	5275	9
5292	5293	5294	5297	9
5292	5293	5294	5304	9
5292	5295	5296	5297	9
5292	5295	5296	5303	9
5293	5294	5297	5296	9
5293	5294	5297	5302	9
5293	5294	5304	5306	9
5293	5292	5295	5296	9
5293	5292	5295	5301	9
5293	5292	5298	5299	9
5294	5293	5292	5295	9
5294	5293	5292	5298	9
5294	5297	5296	5295	9
5294	5297	5296	5303	9
5297	5294	5293	5300	9
5297	5294	5304	5306	9
5297	5296	5295	5301	9
5297	5296	5303	5305	9
5296	5297	5294	5304	9
5296	5295	5292	5298	9
5295	5296	5297	5302	9
5295	5296	5303	5305	9
5295	5292	5293	5300	9
5295	5292	5298	5299	9
5302	5297	5296	5303	9
5301	5295	5296	5303	9
5298	5292	5293	5300	9
5298	5292	5295	5301	9
5300	5293	5294	5304	9
5302	5297	5294	5304	9
5321	5324	5325	5326	9
5321	5324	5325	5332	9
5321	5322	5323	5326	9
5321	5322	5323	5333	9
5324	5325	5326	5323	9
5324	5325	5326	5331	9
5324	5325	5332	5334	9
5324	5321	5322	5323	9
5324	5321	5322	5329	9
5324	5321	5327	5328	9
5325	5324	5321	5322	9
5325	5324	5321	5327	9
5325	5326	5323	5322	9
5325	5326	5323	5333	9
5326	5325	5324	5330	9
5326	5325	5332	5334	9
5326	5323	5322	5329	9
5326	5323	5333	5335	9
5323	5326	5325	5332	9
5323	5322	5321	5327	9
5322	5323	5326	5331	9
5322	5323	5333	5335	9
5322	5321	5324	5330	9
5322	5321	5327	5328	9
5331	5326	5323	5333	9
5329	5322	5323	5333	9
5327	5321	5324	5330	9
5327	5321	5322	5329	9
5330	5324	5325	5332	9
5331	5326	5325	5332	9
5336	5339	5340	5341	9
5336	5339	5340	5347	9
5336	5337	5338	5341	9
5336	5337	5338	5348	9
5339	5340	5341	5338	9
5339	5340	5341	5346	9
5339	5340	5347	5349	9
5339	5336	5337	5338	9
5339	5336	5337	5344	9
5339	5336	5342	5343	9
5340	5339	5336	5337	9
5340	5339	5336	5342	9
5340	5341	5338	5337	9
5340	5341	5338	5348	9
5341	5340	5339	5345	9
5341	5340	5347	5349	9
5341	5338	5337	5344	9
5341	5338	5348	5350	9
5338	5341	5340	5347	9
5338	5337	5336	5342	9
5337	5338	5341	5346	9
5337	5338	5348	5350	9
5337	5336	5339	5345	9
5337	5336	5342	5343	9
5346	5341	5338	5348	9
5344	5337	5338	5348	9
5342	5336	5339	5345	9
5342	5336	5337	5344	9
5345	5339	5340	5347	9
5346	5341	5340	5347	9
5365	5368	5369	5370	9
5365	5368	5369	5376	9
5365	5366	5367	5370	9
5365	5366	5367	5377	9
5367	5370	5369	5368	9
5368	5369	5370	5375	9
5368	5369	5376	5378	9
5367	5366	5365	5368	9
5368	5365	5366	5373	9
5368	5365	5371	5372	9
5366	5365	5368	5369	9
5369	5368	5365	5371	9
5366	5367	5370	5369	9
5369	5370	5367	5377	9
5370	5369	5368	5374	9
5370	5369	5376	5378	9
5370	5367	5366	5373	9
5370	5367	5377	5379	9
5367	5370	5369	5376	9
5367	5366	5365	5371	9
5366	5367	5370	5375	9
5366	5367	5377	5379	9
5366	5365	5368	5374	9
5366	5365	5371	5372	9
5375	5370	5367	5377	9
5373	5366	5367	5377	9
5371	5365	5368	5374	9
5371	5365	5366	5373	9
5374	5368	5369	5376	9
5375	5370	5369	5376	9
5394	5397	5398	5399	9
5394	5397	5398	5405	9
5394	5395	5396	5399	9
5394	5395	5396	5406	9
5396	5399	5398	5397	9
5397	5398	5399	5404	9
5397	5398	5405	5407	9
5396	5395	5394	5397	9
5397	5394	5395	5402	9
5397	5394	5400	5401	9
5395	5394	5397	5398	9
5398	5397	5394	5400	9
5395	5396	5399	5398	9
5398	5399	5396	5406	9
5399	5398	5397	5403	9
5399	5398	5405	5407	9
5399	5396	5395	5402	9
5399	5396	5406	5408	9
5396	5399	5398	5405	9
5396	5395	5394	5400	9
5395	5396	5399	5404	9
5395	5396	5406	5408	9
5395	5394	5397	5403	9
5395	5394	5400	5401	9
5404	5399	5396	5406	9
5402	5395	5396	5406	9
5400	5394	5397	5403	9
5400	5394	5395	5402	9
5403	5397	5398	5405	9
5404	5399	5398	5405	9
5423	5426	5427	5428	9
5423	5426	5427	5434	9
5423	5424	5425	5428	9
5423	5424	5425	5435	9
5425	5428	5427	5426	9
5426	5427	5428	5433	9
5426	5427	5434	5436	9
5425	5424	5423	5426	9
5426	5423	5424	5431	9
5426	5423	5429	5430	9
5424	5423	5426	5427	9
5427	5426	5423	5429	9
5424	5425	5428	5427	9
5427	5428	5425	5435	9
5428	5427	5426	5432	9
5428	5427	5434	5436	9
5428	5425	5424	5431	9
5428	5425	5435	5437	9
5425	5428	5427	5434	9
5425	5424	5423	5429	9
5424	5425	5428	5433	9
5424	5425	5435	5437	9
5424	5423	5426	5432	9
5424	5423	5429	5430	9
5433	5428	5425	5435	9
5431	5424	5425	5435	9
5429	5423	5426	5432	9
5429	5423	5424	5431	9
5432	5426	5427	5434	9
5433	5428	5427	5434	9
5452	5455	5456	5457	9
5452	5455	5456	5463	9
5452	5453	5454	5457	9
5452	5453	5454	5464	9
5454	5457	5456	5455	9
5455	5456	5457	5462	9
5455	5456	5463	5465	9
5454	5453	5452	5455	9
5455	5452	5453	5460	9
5455	5452	5458	5459	9
5453	5452	5455	5456	9
5456	5455	5452	5458	9
5453	5454	5457	5456	9
5456	5457	5454	5464	9
5457	5456	5455	5461	9
5457	5456	5463	5465	9
5457	5454	5453	5460	9
5457	5454	5464	5466	9
5454	5457	5456	5463	9
5454	5453	5452	5458	9
5453	5454	5457	5462	9
5453	5454	5464	5466	9
5453	5452	5455	5461	9
5453	5452	5458	5459	9
5462	5457	5454	5464	9
5460	5453	5454	5464	9
5458	5452	5455	5461	9
5458	5452	5453	5460	9
5461	5455	5456	5463	9
5462	5457	5456	5463	9
5467	5468	5469	5472	9
5467	5468	5469	5479	9
5467	5470	5471	5472	9
5467	5470	5471	5478	9
5468	5469	5472	5471	9
5468	5469	5472	5477	9
5468	5469	5479	5481	9
5468	5467	5470	5471	9
5468	5467	5470	5476	9
5468	5467	5473	5474	9
5469	5468	5467	5470	9
5469	5468	5467	5473	9
5469	5472	5471	5470	9
5469	5472	5471	5478	9
5472	5469	5468	5475	9
5472	5469	5479	5481	9
5472	5471	5470	5476	9
5472	5471	5478	5480	9
5471	5472	5469	5479	9
5471	5470	5467	5473	9
5470	5471	5472	5477	9
5470	5471	5478	5480	9
5470	5467	5468	5475	9
5470	5467	5473	5474	9
5477	5472	5471	5478	9
5476	5470	5471	5478	9
5473	5467	5468	5475	9
5473	5467	5470	5476	9
5475	5468	5469	5479	9
5477	5472	5469	5479	9
5496	5497	5498	5501	9
5496	5497	5498	5508	9
5496	5499	5500	5501	9
5496	5499	5500	5507	9
5497	5498	5501	5500	9
5497	5498	5501	5506	9
5497	5498	5508	5510	9
5497	5496	5499	5500	9
5497	5496	5499	5505	9
5497	5496	5502	5503	9
5498	5497	5496	5499	9
5498	5497	5496	5502	9
5498	5501	5500	5499	9
5498	5501	5500	5507	9
5501	5498	5497	5504	9
5501	5498	5508	5510	9
5501	5500	5499	5505	9
5501	5500	5507	5509	9
5500	5501	5498	5508	9
5500	5499	5496	5502	9
5499	5500	5501	5506	9
5499	5500	5507	5509	9
5499	5496	5497	5504	9
5499	5496	5502	5503	9
5506	5501	5500	5507	9
5505	5499	5500	5507	9
5502	5496	5497	5504	9
5502	5496	5499	5505	9
5504	5497	5498	5508	9
5506	5501	5498	5508	9
5525	5528	5529	5530	9
5525	5528	5529	5536	9
5525	5526	5527	5530	9
5525	5526	5527	5537	9
5528	5529	5530	5527	9
5528	5529	5530	5535	9
5528	5529	5536	5538	9
5528	5525	5526	5527	9
5528	5525	5526	5533	9
5528	5525	5531	5532	9
5529	5528	5525	5526	9
5529	5528	5525	5531	9
5529	5530	5527	5526	9
5529	5530	5527	5537	9
5530	5529	5528	5534	9
5530	5529	5536	5538	9
5530	5527	5526	5533	9
5530	5527	5537	5539	9
5527	5530	5529	5536	9
5527	5526	5525	5531	9
5526	5527	5530	5535	9
5526	5527	5537	5539	9
5526	5525	5528	5534	9
5526	5525	5531	5532	9
5535	5530	5527	5537	9
5533	5526	5527	5537	9
5531	5525	5528	5534	9
5531	5525	5526	5533	9
5534	5528	5529	5536	9
5535	5530	5529	5536	9
1031	1034	1035	1036	9
1031	1034	1035	1042	9
1031	1032	1033	1036	9
1031	1032	1033	1043	9
1033	1036	1035	1034	9
1034	1035	1036	1041	9
1034	1035	1042	1044	9
1033	1032	1031	1034	9
1034	1031	1032	1039	9
1034	1031	1037	1038	9
1032	1031	1034	1035	9
1035	1034	1031	1037	9
1032	1033	1036	1035	9
1035	1036	1033	1043	9
1036	1035	1034	1040	9
1036	1035	1042	1044	9
1036	1033	1032	1039	9
1036	1033	1043	1045	9
1036	1033	1043	1046	9
1033	1036	1035	1042	9
1033	1032	1031	1037	9
1033	1043	1046	1047	9
1032	1033	1036	1041	9
1032	1033	1043	1045	9
1032	1033	1043	1046	9
1032	1031	1034	1040	9
1032	1031	1037	1038	9
1041	1036	1033	1043	9
1039	1032	1033	1043	9
1037	1031	1034	1040	9
1037	1031	1032	1039	9
1040	1034	1035	1042	9
1041	1036	1035	1042	9
1045	1043	1046	1047	9
5554	5557	5558	5559	9
5554	5557	5558	5565	9
5554	5555	5556	5559	9
5554	5555	5556	5566	9
5557	5558	5559	5556	9
5557	5558	5559	5564	9
5557	5558	5565	5567	9
5557	5554	5555	5556	9
5557	5554	5555	5562	9
5557	5554	5560	5561	9
5558	5557	5554	5555	9
5558	5557	5554	5560	9
5558	5559	5556	5555	9
5558	5559	5556	5566	9
5559	5558	5557	5563	9
5559	5558	5565	5567	9
5559	5556	5555	5562	9
5559	5556	5566	5568	9
5556	5559	5558	5565	9
5556	5555	5554	5560	9
5555	5556	5559	5564	9
5555	5556	5566	5568	9
5555	5554	5557	5563	9
5555	5554	5560	5561	9
5564	5559	5556	5566	9
5562	5555	5556	5566	9
5560	5554	5557	5563	9
5560	5554	5555	5562	9
5563	5557	5558	5565	9
5564	5559	5558	5565	9
5571	5570	5569	5572	9
5571	5570	5569	5575	9
5571	5574	5573	5572	9
5571	5574	5573	5580	9
5570	5569	5572	5573	9
5570	5569	5572	5578	9
5570	5569	5575	5576	9
5570	5571	5574	5573	9
5570	5571	5574	5579	9
5570	5571	5581	5583	9
5569	5570	5571	5574	9
5569	5570	5571	5581	9
5569	5572	5573	5574	9
5569	5572	5573	5580	9
5572	5569	5570	5577	9
5572	5569	5575	5576	9
5572	5573	5574	5579	9
5572	5573	5580	5582	9
5573	5572	5569	5575	9
5573	5574	5571	5581	9
5574	5573	5572	5578	9
5574	5573	5580	5582	9
5574	5571	5570	5577	9
5574	5571	5581	5583	9
5578	5572	5573	5580	9
5579	5574	5573	5580	9
5577	5570	5571	5581	9
5579	5574	5571	5581	9
5575	5569	5570	5577	9
5575	5569	5572	5578	9
5584	5587	5588	5589	9
5584	5587	5588	5595	9
5584	5585	5586	5589	9
5584	5585	5586	5596	9
5586	5589	5588	5587	9
5587	5588	5589	5594	9
5587	5588	5595	5597	9
5586	5585	5584	5587	9
5587	5584	5585	5592	9
5587	5584	5590	5591	9
5585	5584	5587	5588	9
5588	5587	5584	5590	9
5585	5586	5589	5588	9
5588	5589	5586	5596	9
5589	5588	5587	5593	9
5589	5588	5595	5597	9
5589	5586	5585	5592	9
5589	5586	5596	5598	9
5586	5589	5588	5595	9
5586	5585	5584	5590	9
5585	5586	5589	5594	9
5585	5586	5596	5598	9
5585	5584	5587	5593	9
5585	5584	5590	5591	9
5594	5589	5586	5596	9
5592	5585	5586	5596	9
5590	5584	5587	5593	9
5590	5584	5585	5592	9
5593	5587	5588	5595	9
5594	5589	5588	5595	9
5613	5616	5617	5618	9
5613	5616	5617	5624	9
5613	5614	5615	5618	9
5613	5614	5615	5625	9
5615	5618	5617	5616	9
5616	5617	5618	5623	9
5616	5617	5624	5626	9
5615	5614	5613	5616	9
5616	5613	5614	5621	9
5616	5613	5619	5620	9
5614	5613	5616	5617	9
5617	5616	5613	5619	9
5614	5615	5618	5617	9
5617	5618	5615	5625	9
5618	5617	5616	5622	9
5618	5617	5624	5626	9
5618	5615	5614	5621	9
5618	5615	5625	5627	9
5615	5618	5617	5624	9
5615	5614	5613	5619	9
5614	5615	5618	5623	9
5614	5615	5625	5627	9
5614	5613	5616	5622	9
5614	5613	5619	5620	9
5623	5618	5615	5625	9
5621	5614	5615	5625	9
5619	5613	5616	5622	9
5619	5613	5614	5621	9
5622	5616	5617	5624	9
5623	5618	5617	5624	9
1078	1079	1080	1081	9
1078	1079	1080	1086	9
1078	1083	1082	1081	9
1078	1083	1082	1084	9
1079	1080	1081	1082	9
1079	1080	1081	1090	9
1079	1080	1086	1087	9
1079	1080	1086	1088	9
1079	1078	1083	1082	9
1079	1078	1083	1091	9
1079	1078	1076	1077	9
1080	1079	1078	1083	9
1080	1079	1078	1076	9
1080	1081	1082	1083	9
1080	1081	1082	1084	9
1081	1080	1079	1089	9
1081	1080	1086	1087	9
1081	1080	1086	1088	9
1081	1082	1083	1091	9
1081	1082	1084	1085	9
1082	1081	1080	1086	9
1082	1083	1078	1076	9
1083	1082	1081	1090	9
1083	1082	1084	1085	9
1083	1078	1079	1089	9
1083	1078	1076	1077	9
1090	1081	1082	1084	9
1091	1083	1082	1084	9
1076	1078	1079	1089	9
1076	1078	1083	1091	9
1089	1079	1080	1086	9
1090	1081	1080	1086	9
5628	5631	5632	5633	9
5628	5631	5632	5639	9
5628	5629	5630	5633	9
5628	5629	5630	5640	9
5630	5633	5632	5631	9
5631	5632	5633	5638	9
5631	5632	5639	5641	9
5630	5629	5628	5631	9
5631	5628	5629	5636	9
5631	5628	5634	5635	9
5629	5628	5631	5632	9
5632	5631	5628	5634	9
5629	5630	5633	5632	9
5632	5633	5630	5640	9
5633	5632	5631	5637	9
5633	5632	5639	5641	9
5633	5630	5629	5636	9
5633	5630	5640	5642	9
5630	5633	5632	5639	9
5630	5629	5628	5634	9
5629	5630	5633	5638	9
5629	5630	5640	5642	9
5629	5628	5631	5637	9
5629	5628	5634	5635	9
5638	5633	5630	5640	9
5636	5629	5630	5640	9
5634	5628	5631	5637	9
5634	5628	5629	5636	9
5637	5631	5632	5639	9
5638	5633	5632	5639	9
1092	1093	1094	1097	9
1092	1093	1094	1104	9
1092	1095	1096	1097	9
1092	1095	1096	1103	9
1093	1094	1097	1096	9
1093	1094	1097	1102	9
1093	1094	1104	1106	9
1093	1094	1104	1107	9
1093	1092	1095	1096	9
1093	1092	1095	1101	9
1093	1092	1098	1099	9
1094	1093	1092	1095	9
1094	1093	1092	1098	9
1094	1097	1096	1095	9
1094	1097	1096	1103	9
1094	1104	1107	1108	9
1097	1094	1093	1100	9
1097	1094	1104	1106	9
1097	1094	1104	1107	9
1097	1096	1095	1101	9
1097	1096	1103	1105	9
1096	1097	1094	1104	9
1096	1095	1092	1098	9
1095	1096	1097	1102	9
1095	1096	1103	1105	9
1095	1092	1093	1100	9
1095	1092	1098	1099	9
1102	1097	1096	1103	9
1101	1095	1096	1103	9
1098	1092	1093	1100	9
1098	1092	1095	1101	9
1100	1093	1094	1104	9
1102	1097	1094	1104	9
1106	1104	1107	1108	9
5657	5660	5661	5662	9
5657	5660	5661	5668	9
5657	5658	5659	5662	9
5657	5658	5659	5669	9
5659	5662	5661	5660	9
5660	5661	5662	5667	9
5660	5661	5668	5670	9
5659	5658	5657	5660	9
5660	5657	5658	5665	9
5660	5657	5663	5664	9
5658	5657	5660	5661	9
5661	5660	5657	5663	9
5658	5659	5662	5661	9
5661	5662	5659	5669	9
5662	5661	5660	5666	9
5662	5661	5668	5670	9
5662	5659	5658	5665	9
5662	5659	5669	5671	9
5659	5662	5661	5668	9
5659	5658	5657	5663	9
5658	5659	5662	5667	9
5658	5659	5669	5671	9
5658	5657	5660	5666	9
5658	5657	5663	5664	9
5667	5662	5659	5669	9
5665	5658	5659	5669	9
5663	5657	5660	5666	9
5663	5657	5658	5665	9
5666	5660	5661	5668	9
5667	5662	5661	5668	9
1125	1124	1123	1126	9
1125	1124	1123	1129	9
1125	1128	1127	1126	9
1125	1128	1127	1134	9
1125	1135	1138	1139	9
1124	1123	1126	1127	9
1124	1123	1126	1132	9
1124	1123	1129	1130	9
1124	1125	1128	1127	9
1124	1125	1128	1133	9
1124	1125	1135	1137	9
1124	1125	1135	1138	9
1123	1124	1125	1128	9
1123	1124	1125	1135	9
1123	1126	1127	1128	9
1123	1126	1127	1134	9
1126	1123	1124	1131	9
1126	1123	1129	1130	9
1126	1127	1128	1133	9
1126	1127	1134	1136	9
1127	1126	1123	1129	9
1127	1128	1125	1135	9
1128	1127	1126	1132	9
1128	1127	1134	1136	9
1128	1125	1124	1131	9
1128	1125	1135	1137	9
1128	1125	1135	1138	9
1132	1126	1127	1134	9
1133	1128	1127	1134	9
1131	1124	1125	1135	9
1133	1128	1125	1135	9
1129	1123	1124	1131	9
1129	1123	1126	1132	9
1137	1135	1138	1139	9
5687	5686	5689	5690	9
5690	5689	5686	5692	9
5687	5688	5691	5690	9
5690	5691	5688	5698	9
5688	5687	5686	5689	9
5689	5686	5687	5694	9
5689	5686	5692	5693	9
5688	5691	5690	5689	9
5689	5690	5691	5696	9
5689	5690	5697	5699	9
5686	5689	5690	5691	9
5686	5689	5690	5697	9
5686	5687	5688	5691	9
5686	5687	5688	5698	9
5687	5686	5689	5695	9
5687	5686	5692	5693	9
5687	5688	5691	5696	9
5687	5688	5698	5700	9
5688	5687	5686	5692	9
5688	5691	5690	5697	9
5691	5688	5687	5694	9
5691	5688	5698	5700	9
5691	5690	5689	5695	9
5691	5690	5697	5699	9
5698	5688	5687	5694	9
5698	5688	5691	5696	9
5695	5689	5690	5697	9
5696	5691	5690	5697	9
5695	5689	5686	5692	9
5694	5687	5686	5692	9
5715	5716	5717	5720	9
5715	5716	5717	5727	9
5715	5718	5719	5720	9
5715	5718	5719	5726	9
5719	5720	5717	5716	9
5716	5717	5720	5725	9
5716	5717	5727	5729	9
5719	5718	5715	5716	9
5716	5715	5718	5724	9
5716	5715	5721	5722	9
5718	5715	5716	5717	9
5717	5716	5715	5721	9
5718	5719	5720	5717	9
5717	5720	5719	5726	9
5720	5717	5716	5723	9
5720	5717	5727	5729	9
5720	5719	5718	5724	9
5720	5719	5726	5728	9
5719	5720	5717	5727	9
5719	5718	5715	5721	9
5718	5719	5720	5725	9
5718	5719	5726	5728	9
5718	5715	5716	5723	9
5718	5715	5721	5722	9
5725	5720	5719	5726	9
5724	5718	5719	5726	9
5721	5715	5716	5723	9
5721	5715	5718	5724	9
5723	5716	5717	5727	9
5725	5720	5717	5727	9
5730	5731	5732	5735	9
5730	5731	5732	5742	9
5730	5733	5734	5735	9
5730	5733	5734	5741	9
5734	5735	5732	5731	9
5731	5732	5735	5740	9
5731	5732	5742	5744	9
5734	5733	5730	5731	9
5731	5730	5733	5739	9
5731	5730	5736	5737	9
5733	5730	5731	5732	9
5732	5731	5730	5736	9
5733	5734	5735	5732	9
5732	5735	5734	5741	9
5735	5732	5731	5738	9
5735	5732	5742	5744	9
5735	5734	5733	5739	9
5735	5734	5741	5743	9
5734	5735	5732	5742	9
5734	5733	5730	5736	9
5733	5734	5735	5740	9
5733	5734	5741	5743	9
5733	5730	5731	5738	9
5733	5730	5736	5737	9
5740	5735	5734	5741	9
5739	5733	5734	5741	9
5736	5730	5731	5738	9
5736	5730	5733	5739	9
5738	5731	5732	5742	9
5740	5735	5732	5742	9
1154	1155	1156	1159	9
1154	1155	1156	1166	9
1154	1157	1158	1159	9
1154	1157	1158	1165	9
1155	1156	1159	1158	9
1155	1156	1159	1164	9
1155	1156	1166	1168	9
1155	1156	1166	1169	9
1155	1154	1157	1158	9
1155	1154	1157	1163	9
1155	1154	1160	1161	9
1156	1155	1154	1157	9
1156	1155	1154	1160	9
1156	1159	1158	1157	9
1156	1159	1158	1165	9
1156	1166	1169	1170	9
1159	1156	1155	1162	9
1159	1156	1166	1168	9
1159	1156	1166	1169	9
1159	1158	1157	1163	9
1159	1158	1165	1167	9
1158	1159	1156	1166	9
1158	1157	1154	1160	9
1157	1158	1159	1164	9
1157	1158	1165	1167	9
1157	1154	1155	1162	9
1157	1154	1160	1161	9
1164	1159	1158	1165	9
1163	1157	1158	1165	9
1160	1154	1155	1162	9
1160	1154	1157	1163	9
1162	1155	1156	1166	9
1164	1159	1156	1166	9
1168	1166	1169	1170	9
5759	5762	5763	5764	9
5759	5762	5763	5770	9
5759	5760	5761	5764	9
5759	5760	5761	5771	9
5761	5764	5763	5762	9
5762	5763	5764	5769	9
5762	5763	5770	5772	9
5761	5760	5759	5762	9
5762	5759	5760	5767	9
5762	5759	5765	5766	9
5760	5759	5762	5763	9
5763	5762	5759	5765	9
5760	5761	5764	5763	9
5763	5764	5761	5771	9
5764	5763	5762	5768	9
5764	5763	5770	5772	9
5764	5761	5760	5767	9
5764	5761	5771	5773	9
5761	5764	5763	5770	9
5761	5760	5759	5765	9
5760	5761	5764	5769	9
5760	5761	5771	5773	9
5760	5759	5762	5768	9
5760	5759	5765	5766	9
5769	5764	5761	5771	9
5767	5760	5761	5771	9
5765	5759	5762	5768	9
5765	5759	5760	5767	9
5768	5762	5763	5770	9
5769	5764	5763	5770	9
1171	1172	1173	1176	9
1171	1172	1173	1183	9
1171	1174	1175	1176	9
1171	1174	1175	1182	9
1172	1173	1176	1175	9
1172	1173	1176	1181	9
1172	1173	1183	1185	9
1172	1173	1183	1186	9
1172	1171	1174	1175	9
1172	1171	1174	1180	9
1172	1171	1177	1178	9
1173	1172	1171	1174	9
1173	1172	1171	1177	9
1173	1176	1175	1174	9
1173	1176	1175	1182	9
1173	1183	1186	1187	9
1176	1173	1172	1179	9
1176	1173	1183	1185	9
1176	1173	1183	1186	9
1176	1175	1174	1180	9
1176	1175	1182	1184	9
1175	1176	1173	1183	9
1175	1174	1171	1177	9
1174	1175	1176	1181	9
1174	1175	1182	1184	9
1174	1171	1172	1179	9
1174	1171	1177	1178	9
1181	1176	1175	1182	9
1180	1174	1175	1182	9
1177	1171	1172	1179	9
1177	1171	1174	1180	9
1179	1172	1173	1183	9
1181	1176	1173	1183	9
1185	1183	1186	1187	9
1204	1203	1202	1205	9
1204	1203	1202	1208	9
1204	1207	1206	1205	9
1204	1207	1206	1213	9
1204	1214	1217	1218	9
1203	1202	1205	1206	9
1203	1202	1205	1211	9
1203	1202	1208	1209	9
1203	1204	1207	1206	9
1203	1204	1207	1212	9
1203	1204	1214	1216	9
1203	1204	1214	1217	9
1202	1203	1204	1207	9
1202	1203	1204	1214	9
1202	1205	1206	1207	9
1202	1205	1206	1213	9
1205	1202	1203	1210	9
1205	1202	1208	1209	9
1205	1206	1207	1212	9
1205	1206	1213	1215	9
1206	1205	1202	1208	9
1206	1207	1204	1214	9
1207	1206	1205	1211	9
1207	1206	1213	1215	9
1207	1204	1203	1210	9
1207	1204	1214	1216	9
1207	1204	1214	1217	9
1211	1205	1206	1213	9
1212	1207	1206	1213	9
1210	1203	1204	1214	9
1212	1207	1204	1214	9
1208	1202	1203	1210	9
1208	1202	1205	1211	9
1216	1214	1217	1218	9
5789	5790	5793	5792	9
5792	5793	5790	5800	9
5789	5788	5791	5792	9
5792	5791	5788	5794	9
5788	5789	5790	5793	9
5793	5790	5789	5796	9
5793	5790	5800	5802	9
5788	5791	5792	5793	9
5793	5792	5791	5797	9
5793	5792	5799	5801	9
5790	5793	5792	5791	9
5790	5793	5792	5799	9
5790	5789	5788	5791	9
5790	5789	5788	5794	9
5789	5790	5793	5798	9
5789	5790	5800	5802	9
5789	5788	5791	5797	9
5789	5788	5794	5795	9
5788	5789	5790	5800	9
5788	5791	5792	5799	9
5791	5788	5789	5796	9
5791	5788	5794	5795	9
5791	5792	5793	5798	9
5791	5792	5799	5801	9
5794	5788	5789	5796	9
5794	5788	5791	5797	9
5798	5793	5792	5799	9
5797	5791	5792	5799	9
5798	5793	5790	5800	9
5796	5789	5790	5800	9
5803	5806	5807	5808	9
5803	5806	5807	5814	9
5803	5804	5805	5808	9
5803	5804	5805	5815	9
5805	5808	5807	5806	9
5806	5807	5808	5813	9
5806	5807	5814	5816	9
5805	5804	5803	5806	9
5806	5803	5804	5811	9
5806	5803	5809	5810	9
5804	5803	5806	5807	9
5807	5806	5803	5809	9
5804	5805	5808	5807	9
5807	5808	5805	5815	9
5808	5807	5806	5812	9
5808	5807	5814	5816	9
5808	5805	5804	5811	9
5808	5805	5815	5817	9
5805	5808	5807	5814	9
5805	5804	5803	5809	9
5804	5805	5808	5813	9
5804	5805	5815	5817	9
5804	5803	5806	5812	9
5804	5803	5809	5810	9
5813	5808	5805	5815	9
5811	5804	5805	5815	9
5809	5803	5806	5812	9
5809	5803	5804	5811	9
5812	5806	5807	5814	9
5813	5808	5807	5814	9
5832	5835	5836	5837	9
5832	5835	5836	5843	9
5832	5833	5834	5837	9
5832	5833	5834	5844	9
5834	5837	5836	5835	9
5835	5836	5837	5842	9
5835	5836	5843	5845	9
5834	5833	5832	5835	9
5835	5832	5833	5840	9
5835	5832	5838	5839	9
5833	5832	5835	5836	9
5836	5835	5832	5838	9
5833	5834	5837	5836	9
5836	5837	5834	5844	9
5837	5836	5835	5841	9
5837	5836	5843	5845	9
5837	5834	5833	5840	9
5837	5834	5844	5846	9
5834	5837	5836	5843	9
5834	5833	5832	5838	9
5833	5834	5837	5842	9
5833	5834	5844	5846	9
5833	5832	5835	5841	9
5833	5832	5838	5839	9
5842	5837	5834	5844	9
5840	5833	5834	5844	9
5838	5832	5835	5841	9
5838	5832	5833	5840	9
5841	5835	5836	5843	9
5842	5837	5836	5843	9
5861	5862	5863	5866	9
5861	5862	5863	5873	9
5861	5864	5865	5866	9
5861	5864	5865	5872	9
5862	5863	5866	5865	9
5862	5863	5866	5871	9
5862	5863	5873	5875	9
5862	5861	5864	5865	9
5862	5861	5864	5870	9
5862	5861	5867	5868	9
5863	5862	5861	5864	9
5863	5862	5861	5867	9
5863	5866	5865	5864	9
5863	5866	5865	5872	9
5866	5863	5862	5869	9
5866	5863	5873	5875	9
5866	5865	5864	5870	9
5866	5865	5872	5874	9
5865	5866	5863	5873	9
5865	5864	5861	5867	9
5864	5865	5866	5871	9
5864	5865	5872	5874	9
5864	5861	5862	5869	9
5864	5861	5867	5868	9
5871	5866	5865	5872	9
5870	5864	5865	5872	9
5867	5861	5862	5869	9
5867	5861	5864	5870	9
5869	5862	5863	5873	9
5871	5866	5863	5873	9
5890	5891	5892	5895	9
5890	5891	5892	5902	9
5890	5893	5894	5895	9
5890	5893	5894	5901	9
5891	5892	5895	5894	9
5891	5892	5895	5900	9
5891	5892	5902	5904	9
5891	5890	5893	5894	9
5891	5890	5893	5899	9
5891	5890	5896	5897	9
5892	5891	5890	5893	9
5892	5891	5890	5896	9
5892	5895	5894	5893	9
5892	5895	5894	5901	9
5895	5892	5891	5898	9
5895	5892	5902	5904	9
5895	5894	5893	5899	9
5895	5894	5901	5903	9
5894	5895	5892	5902	9
5894	5893	5890	5896	9
5893	5894	5895	5900	9
5893	5894	5901	5903	9
5893	5890	5891	5898	9
5893	5890	5896	5897	9
5900	5895	5894	5901	9
5899	5893	5894	5901	9
5896	5890	5891	5898	9
5896	5890	5893	5899	9
5898	5891	5892	5902	9
5900	5895	5892	5902	9
5905	5908	5909	5910	9
5905	5908	5909	5916	9
5905	5906	5907	5910	9
5905	5906	5907	5917	9
5908	5909	5910	5907	9
5908	5909	5910	5915	9
5908	5909	5916	5918	9
5908	5905	5906	5907	9
5908	5905	5906	5913	9
5908	5905	5911	5912	9
5909	5908	5905	5906	9
5909	5908	5905	5911	9
5909	5910	5907	5906	9
5909	5910	5907	5917	9
5910	5909	5908	5914	9
5910	5909	5916	5918	9
5910	5907	5906	5913	9
5910	5907	5917	5919	9
5907	5910	5909	5916	9
5907	5906	5905	5911	9
5906	5907	5910	5915	9
5906	5907	5917	5919	9
5906	5905	5908	5914	9
5906	5905	5911	5912	9
5915	5910	5907	5917	9
5913	5906	5907	5917	9
5911	5905	5908	5914	9
5911	5905	5906	5913	9
5914	5908	5909	5916	9
5915	5910	5909	5916	9
5920	5923	5924	5925	9
5920	5923	5924	5931	9
5920	5921	5922	5925	9
5920	5921	5922	5932	9
5923	5924	5925	5922	9
5923	5924	5925	5930	9
5923	5924	5931	5933	9
5923	5920	5921	5922	9
5923	5920	5921	5928	9
5923	5920	5926	5927	9
5924	5923	5920	5921	9
5924	5923	5920	5926	9
5924	5925	5922	5921	9
5924	5925	5922	5932	9
5925	5924	5923	5929	9
5925	5924	5931	5933	9
5925	5922	5921	5928	9
5925	5922	5932	5934	9
5922	5925	5924	5931	9
5922	5921	5920	5926	9
5921	5922	5925	5930	9
5921	5922	5932	5934	9
5921	5920	5923	5929	9
5921	5920	5926	5927	9
5930	5925	5922	5932	9
5928	5921	5922	5932	9
5926	5920	5923	5929	9
5926	5920	5921	5928	9
5929	5923	5924	5931	9
5930	5925	5924	5931	9
1252	1251	1250	1255	9
1252	1251	1250	1248	9
1252	1253	1254	1255	9
1252	1253	1254	1256	9
1251	1250	1255	1254	9
1251	1250	1255	1263	9
1251	1250	1248	1249	9
1251	1252	1253	1254	9
1251	1252	1253	1262	9
1251	1252	1258	1259	9
1251	1252	1258	1260	9
1250	1251	1252	1253	9
1250	1251	1252	1258	9
1250	1255	1254	1253	9
1250	1255	1254	1256	9
1255	1250	1251	1261	9
1255	1250	1248	1249	9
1255	1254	1253	1262	9
1255	1254	1256	1257	9
1254	1255	1250	1248	9
1254	1253	1252	1258	9
1253	1254	1255	1263	9
1253	1254	1256	1257	9
1253	1252	1251	1261	9
1253	1252	1258	1259	9
1253	1252	1258	1260	9
1263	1255	1254	1256	9
1262	1253	1254	1256	9
1261	1251	1252	1258	9
1262	1253	1252	1258	9
1248	1250	1251	1261	9
1248	1250	1255	1263	9
5935	5936	5937	5940	9
5935	5936	5937	5947	9
5935	5938	5939	5940	9
5935	5938	5939	5946	9
5936	5937	5940	5939	9
5936	5937	5940	5945	9
5936	5937	5947	5949	9
5936	5935	5938	5939	9
5936	5935	5938	5944	9
5936	5935	5941	5942	9
5937	5936	5935	5938	9
5937	5936	5935	5941	9
5937	5940	5939	5938	9
5937	5940	5939	5946	9
5940	5937	5936	5943	9
5940	5937	5947	5949	9
5940	5939	5938	5944	9
5940	5939	5946	5948	9
5939	5940	5937	5947	9
5939	5938	5935	5941	9
5938	5939	5940	5945	9
5938	5939	5946	5948	9
5938	5935	5936	5943	9
5938	5935	5941	5942	9
5945	5940	5939	5946	9
5944	5938	5939	5946	9
5941	5935	5936	5943	9
5941	5935	5938	5944	9
5943	5936	5937	5947	9
5945	5940	5937	5947	9
5964	5967	5968	5969	9
5964	5967	5968	5975	9
5964	5965	5966	5969	9
5964	5965	5966	5976	9
5966	5969	5968	5967	9
5967	5968	5969	5974	9
5967	5968	5975	5977	9
5966	5965	5964	5967	9
5967	5964	5965	5972	9
5967	5964	5970	5971	9
5965	5964	5967	5968	9
5968	5967	5964	5970	9
5965	5966	5969	5968	9
5968	5969	5966	5976	9
5969	5968	5967	5973	9
5969	5968	5975	5977	9
5969	5966	5965	5972	9
5969	5966	5976	5978	9
5966	5969	5968	5975	9
5966	5965	5964	5970	9
5965	5966	5969	5974	9
5965	5966	5976	5978	9
5965	5964	5967	5973	9
5965	5964	5970	5971	9
5974	5969	5966	5976	9
5972	5965	5966	5976	9
5970	5964	5967	5973	9
5970	5964	5965	5972	9
5973	5967	5968	5975	9
5974	5969	5968	5975	9
5993	5996	5997	5998	9
5993	5996	5997	6004	9
5993	5994	5995	5998	9
5993	5994	5995	6005	9
5995	5998	5997	5996	9
5996	5997	5998	6003	9
5996	5997	6004	6006	9
5995	5994	5993	5996	9
5996	5993	5994	6001	9
5996	5993	5999	6000	9
5994	5993	5996	5997	9
5997	5996	5993	5999	9
5994	5995	5998	5997	9
5997	5998	5995	6005	9
5998	5997	5996	6002	9
5998	5997	6004	6006	9
5998	5995	5994	6001	9
5998	5995	6005	6007	9
5995	5998	5997	6004	9
5995	5994	5993	5999	9
5994	5995	5998	6003	9
5994	5995	6005	6007	9
5994	5993	5996	6002	9
5994	5993	5999	6000	9
6003	5998	5995	6005	9
6001	5994	5995	6005	9
5999	5993	5996	6002	9
5999	5993	5994	6001	9
6002	5996	5997	6004	9
6003	5998	5997	6004	9
6008	6011	6012	6013	9
6008	6011	6012	6019	9
6008	6009	6010	6013	9
6008	6009	6010	6020	9
6010	6013	6012	6011	9
6011	6012	6013	6018	9
6011	6012	6019	6021	9
6010	6009	6008	6011	9
6011	6008	6009	6016	9
6011	6008	6014	6015	9
6009	6008	6011	6012	9
6012	6011	6008	6014	9
6009	6010	6013	6012	9
6012	6013	6010	6020	9
6013	6012	6011	6017	9
6013	6012	6019	6021	9
6013	6010	6009	6016	9
6013	6010	6020	6022	9
6010	6013	6012	6019	9
6010	6009	6008	6014	9
6009	6010	6013	6018	9
6009	6010	6020	6022	9
6009	6008	6011	6017	9
6009	6008	6014	6015	9
6018	6013	6010	6020	9
6016	6009	6010	6020	9
6014	6008	6011	6017	9
6014	6008	6009	6016	9
6017	6011	6012	6019	9
6018	6013	6012	6019	9
1264	1265	1266	1269	9
1264	1265	1266	1276	9
1264	1267	1268	1269	9
1264	1267	1268	1275	9
1265	1266	1269	1268	9
1265	1266	1269	1274	9
1265	1266	1276	1278	9
1265	1266	1276	1279	9
1265	1264	1267	1268	9
1265	1264	1267	1273	9
1265	1264	1270	1271	9
1266	1265	1264	1267	9
1266	1265	1264	1270	9
1266	1269	1268	1267	9
1266	1269	1268	1275	9
1266	1276	1279	1280	9
1269	1266	1265	1272	9
1269	1266	1276	1278	9
1269	1266	1276	1279	9
1269	1268	1267	1273	9
1269	1268	1275	1277	9
1268	1269	1266	1276	9
1268	1267	1264	1270	9
1267	1268	1269	1274	9
1267	1268	1275	1277	9
1267	1264	1265	1272	9
1267	1264	1270	1271	9
1274	1269	1268	1275	9
1273	1267	1268	1275	9
1270	1264	1265	1272	9
1270	1264	1267	1273	9
1272	1265	1266	1276	9
1274	1269	1266	1276	9
1278	1276	1279	1280	9
6037	6040	6041	6042	9
6037	6040	6041	6048	9
6037	6038	6039	6042	9
6037	6038	6039	6049	9
6039	6042	6041	6040	9
6040	6041	6042	6047	9
6040	6041	6048	6050	9
6039	6038	6037	6040	9
6040	6037	6038	6045	9
6040	6037	6043	6044	9
6038	6037	6040	6041	9
6041	6040	6037	6043	9
6038	6039	6042	6041	9
6041	6042	6039	6049	9
6042	6041	6040	6046	9
6042	6041	6048	6050	9
6042	6039	6038	6045	9
6042	6039	6049	6051	9
6039	6042	6041	6048	9
6039	6038	6037	6043	9
6038	6039	6042	6047	9
6038	6039	6049	6051	9
6038	6037	6040	6046	9
6038	6037	6043	6044	9
6047	6042	6039	6049	9
6045	6038	6039	6049	9
6043	6037	6040	6046	9
6043	6037	6038	6045	9
6046	6040	6041	6048	9
6047	6042	6041	6048	9
6066	6069	6070	6071	9
6066	6069	6070	6077	9
6066	6067	6068	6071	9
6066	6067	6068	6078	9
6068	6071	6070	6069	9
6069	6070	6071	6076	9
6069	6070	6077	6079	9
6068	6067	6066	6069	9
6069	6066	6067	6074	9
6069	6066	6072	6073	9
6067	6066	6069	6070	9
6070	6069	6066	6072	9
6067	6068	6071	6070	9
6070	6071	6068	6078	9
6071	6070	6069	6075	9
6071	6070	6077	6079	9
6071	6068	6067	6074	9
6071	6068	6078	6080	9
6068	6071	6070	6077	9
6068	6067	6066	6072	9
6067	6068	6071	6076	9
6067	6068	6078	6080	9
6067	6066	6069	6075	9
6067	6066	6072	6073	9
6076	6071	6068	6078	9
6074	6067	6068	6078	9
6072	6066	6069	6075	9
6072	6066	6067	6074	9
6075	6069	6070	6077	9
6076	6071	6070	6077	9
1297	1298	1299	1300	9
1297	1298	1299	1305	9
1297	1302	1301	1300	9
1297	1302	1301	1303	9
1298	1299	1300	1301	9
1298	1299	1300	1309	9
1298	1299	1305	1306	9
1298	1299	1305	1307	9
1298	1297	1302	1301	9
1298	1297	1302	1310	9
1298	1297	1295	1296	9
1299	1298	1297	1302	9
1299	1298	1297	1295	9
1299	1300	1301	1302	9
1299	1300	1301	1303	9
1300	1299	1298	1308	9
1300	1299	1305	1306	9
1300	1299	1305	1307	9
1300	1301	1302	1310	9
1300	1301	1303	1304	9
1301	1300	1299	1305	9
1301	1302	1297	1295	9
1302	1301	1300	1309	9
1302	1301	1303	1304	9
1302	1297	1298	1308	9
1302	1297	1295	1296	9
1309	1300	1301	1303	9
1310	1302	1301	1303	9
1295	1297	1298	1308	9
1295	1297	1302	1310	9
1308	1298	1299	1305	9
1309	1300	1299	1305	9
6099	6100	6097	6096	9
6099	6100	6097	6107	9
6099	6098	6095	6096	9
6099	6098	6095	6101	9
6095	6096	6097	6100	9
6100	6097	6096	6103	9
6100	6097	6107	6109	9
6095	6098	6099	6100	9
6100	6099	6098	6104	9
6100	6099	6106	6108	9
6098	6099	6100	6097	9
6097	6100	6099	6106	9
6098	6095	6096	6097	9
6097	6096	6095	6101	9
6096	6097	6100	6105	9
6096	6097	6107	6109	9
6096	6095	6098	6104	9
6096	6095	6101	6102	9
6095	6096	6097	6107	9
6095	6098	6099	6106	9
6098	6095	6096	6103	9
6098	6095	6101	6102	9
6098	6099	6100	6105	9
6098	6099	6106	6108	9
6103	6096	6095	6101	9
6104	6098	6095	6101	9
6106	6099	6100	6105	9
6106	6099	6098	6104	9
6105	6100	6097	6107	9
6103	6096	6097	6107	9
6124	6127	6128	6129	9
6124	6127	6128	6135	9
6124	6125	6126	6129	9
6124	6125	6126	6136	9
6127	6128	6129	6126	9
6127	6128	6129	6134	9
6127	6128	6135	6137	9
6127	6124	6125	6126	9
6127	6124	6125	6132	9
6127	6124	6130	6131	9
6128	6127	6124	6125	9
6128	6127	6124	6130	9
6128	6129	6126	6125	9
6128	6129	6126	6136	9
6129	6128	6127	6133	9
6129	6128	6135	6137	9
6129	6126	6125	6132	9
6129	6126	6136	6138	9
6126	6129	6128	6135	9
6126	6125	6124	6130	9
6125	6126	6129	6134	9
6125	6126	6136	6138	9
6125	6124	6127	6133	9
6125	6124	6130	6131	9
6134	6129	6126	6136	9
6132	6125	6126	6136	9
6130	6124	6127	6133	9
6130	6124	6125	6132	9
6133	6127	6128	6135	9
6134	6129	6128	6135	9
6153	6154	6155	6158	9
6153	6154	6155	6165	9
6153	6156	6157	6158	9
6153	6156	6157	6164	9
6154	6155	6158	6157	9
6154	6155	6158	6163	9
6154	6155	6165	6167	9
6154	6153	6156	6157	9
6154	6153	6156	6162	9
6154	6153	6159	6160	9
6155	6154	6153	6156	9
6155	6154	6153	6159	9
6155	6158	6157	6156	9
6155	6158	6157	6164	9
6158	6155	6154	6161	9
6158	6155	6165	6167	9
6158	6157	6156	6162	9
6158	6157	6164	6166	9
6157	6158	6155	6165	9
6157	6156	6153	6159	9
6156	6157	6158	6163	9
6156	6157	6164	6166	9
6156	6153	6154	6161	9
6156	6153	6159	6160	9
6163	6158	6157	6164	9
6162	6156	6157	6164	9
6159	6153	6154	6161	9
6159	6153	6156	6162	9
6161	6154	6155	6165	9
6163	6158	6155	6165	9
6182	6183	6184	6187	9
6182	6183	6184	6194	9
6182	6185	6186	6187	9
6182	6185	6186	6193	9
6183	6184	6187	6186	9
6183	6184	6187	6192	9
6183	6184	6194	6196	9
6183	6182	6185	6186	9
6183	6182	6185	6191	9
6183	6182	6188	6189	9
6184	6183	6182	6185	9
6184	6183	6182	6188	9
6184	6187	6186	6185	9
6184	6187	6186	6193	9
6187	6184	6183	6190	9
6187	6184	6194	6196	9
6187	6186	6185	6191	9
6187	6186	6193	6195	9
6186	6187	6184	6194	9
6186	6185	6182	6188	9
6185	6186	6187	6192	9
6185	6186	6193	6195	9
6185	6182	6183	6190	9
6185	6182	6188	6189	9
6192	6187	6186	6193	9
6191	6185	6186	6193	9
6188	6182	6183	6190	9
6188	6182	6185	6191	9
6190	6183	6184	6194	9
6192	6187	6184	6194	9
6211	6212	6213	6216	9
6211	6212	6213	6223	9
6211	6214	6215	6216	9
6211	6214	6215	6222	9
6212	6213	6216	6215	9
6212	6213	6216	6221	9
6212	6213	6223	6225	9
6212	6211	6214	6215	9
6212	6211	6214	6220	9
6212	6211	6217	6218	9
6213	6212	6211	6214	9
6213	6212	6211	6217	9
6213	6216	6215	6214	9
6213	6216	6215	6222	9
6216	6213	6212	6219	9
6216	6213	6223	6225	9
6216	6215	6214	6220	9
6216	6215	6222	6224	9
6215	6216	6213	6223	9
6215	6214	6211	6217	9
6214	6215	6216	6221	9
6214	6215	6222	6224	9
6214	6211	6212	6219	9
6214	6211	6217	6218	9
6221	6216	6215	6222	9
6220	6214	6215	6222	9
6217	6211	6212	6219	9
6217	6211	6214	6220	9
6219	6212	6213	6223	9
6221	6216	6213	6223	9
6226	6229	6230	6231	9
6226	6229	6230	6237	9
6226	6227	6228	6231	9
6226	6227	6228	6238	9
6228	6231	6230	6229	9
6229	6230	6231	6236	9
6229	6230	6237	6239	9
6228	6227	6226	6229	9
6229	6226	6227	6234	9
6229	6226	6232	6233	9
6227	6226	6229	6230	9
6230	6229	6226	6232	9
6227	6228	6231	6230	9
6230	6231	6228	6238	9
6231	6230	6229	6235	9
6231	6230	6237	6239	9
6231	6228	6227	6234	9
6231	6228	6238	6240	9
6228	6231	6230	6237	9
6228	6227	6226	6232	9
6227	6228	6231	6236	9
6227	6228	6238	6240	9
6227	6226	6229	6235	9
6227	6226	6232	6233	9
6236	6231	6228	6238	9
6234	6227	6228	6238	9
6232	6226	6229	6235	9
6232	6226	6227	6234	9
6235	6229	6230	6237	9
6236	6231	6230	6237	9
6255	6258	6259	6260	9
6255	6258	6259	6266	9
6255	6256	6257	6260	9
6255	6256	6257	6267	9
6257	6260	6259	6258	9
6258	6259	6260	6265	9
6258	6259	6266	6268	9
6257	6256	6255	6258	9
6258	6255	6256	6263	9
6258	6255	6261	6262	9
6256	6255	6258	6259	9
6259	6258	6255	6261	9
6256	6257	6260	6259	9
6259	6260	6257	6267	9
6260	6259	6258	6264	9
6260	6259	6266	6268	9
6260	6257	6256	6263	9
6260	6257	6267	6269	9
6257	6260	6259	6266	9
6257	6256	6255	6261	9
6256	6257	6260	6265	9
6256	6257	6267	6269	9
6256	6255	6258	6264	9
6256	6255	6261	6262	9
6265	6260	6257	6267	9
6263	6256	6257	6267	9
6261	6255	6258	6264	9
6261	6255	6256	6263	9
6264	6258	6259	6266	9
6265	6260	6259	6266	9
6270	6273	6274	6275	9
6270	6273	6274	6281	9
6270	6271	6272	6275	9
6270	6271	6272	6282	9
6272	6275	6274	6273	9
6273	6274	6275	6280	9
6273	6274	6281	6283	9
6272	6271	6270	6273	9
6273	6270	6271	6278	9
6273	6270	6276	6277	9
6271	6270	6273	6274	9
6274	6273	6270	6276	9
6271	6272	6275	6274	9
6274	6275	6272	6282	9
6275	6274	6273	6279	9
6275	6274	6281	6283	9
6275	6272	6271	6278	9
6275	6272	6282	6284	9
6272	6275	6274	6281	9
6272	6271	6270	6276	9
6271	6272	6275	6280	9
6271	6272	6282	6284	9
6271	6270	6273	6279	9
6271	6270	6276	6277	9
6280	6275	6272	6282	9
6278	6271	6272	6282	9
6276	6270	6273	6279	9
6276	6270	6271	6278	9
6279	6273	6274	6281	9
6280	6275	6274	6281	9
6299	6302	6303	6304	9
6299	6302	6303	6310	9
6299	6300	6301	6304	9
6299	6300	6301	6311	9
6302	6303	6304	6301	9
6302	6303	6304	6309	9
6302	6303	6310	6312	9
6302	6299	6300	6301	9
6302	6299	6300	6307	9
6302	6299	6305	6306	9
6303	6302	6299	6300	9
6303	6302	6299	6305	9
6303	6304	6301	6300	9
6303	6304	6301	6311	9
6304	6303	6302	6308	9
6304	6303	6310	6312	9
6304	6301	6300	6307	9
6304	6301	6311	6313	9
6301	6304	6303	6310	9
6301	6300	6299	6305	9
6300	6301	6304	6309	9
6300	6301	6311	6313	9
6300	6299	6302	6308	9
6300	6299	6305	6306	9
6309	6304	6301	6311	9
6307	6300	6301	6311	9
6305	6299	6302	6308	9
6305	6299	6300	6307	9
6308	6302	6303	6310	9
6309	6304	6303	6310	9
6314	6317	6318	6319	9
6314	6317	6318	6325	9
6314	6315	6316	6319	9
6314	6315	6316	6326	9
6317	6318	6319	6316	9
6317	6318	6319	6324	9
6317	6318	6325	6327	9
6317	6314	6315	6316	9
6317	6314	6315	6322	9
6317	6314	6320	6321	9
6318	6317	6314	6315	9
6318	6317	6314	6320	9
6318	6319	6316	6315	9
6318	6319	6316	6326	9
6319	6318	6317	6323	9
6319	6318	6325	6327	9
6319	6316	6315	6322	9
6319	6316	6326	6328	9
6316	6319	6318	6325	9
6316	6315	6314	6320	9
6315	6316	6319	6324	9
6315	6316	6326	6328	9
6315	6314	6317	6323	9
6315	6314	6320	6321	9
6324	6319	6316	6326	9
6322	6315	6316	6326	9
6320	6314	6317	6323	9
6320	6314	6315	6322	9
6323	6317	6318	6325	9
6324	6319	6318	6325	9
6329	6330	6331	6334	9
6329	6330	6331	6341	9
6329	6332	6333	6334	9
6329	6332	6333	6340	9
6330	6331	6334	6333	9
6330	6331	6334	6339	9
6330	6331	6341	6343	9
6330	6329	6332	6333	9
6330	6329	6332	6338	9
6330	6329	6335	6336	9
6331	6330	6329	6332	9
6331	6330	6329	6335	9
6331	6334	6333	6332	9
6331	6334	6333	6340	9
6334	6331	6330	6337	9
6334	6331	6341	6343	9
6334	6333	6332	6338	9
6334	6333	6340	6342	9
6333	6334	6331	6341	9
6333	6332	6329	6335	9
6332	6333	6334	6339	9
6332	6333	6340	6342	9
6332	6329	6330	6337	9
6332	6329	6335	6336	9
6339	6334	6333	6340	9
6338	6332	6333	6340	9
6335	6329	6330	6337	9
6335	6329	6332	6338	9
6337	6330	6331	6341	9
6339	6334	6331	6341	9
6358	6359	6360	6363	9
6358	6359	6360	6370	9
6358	6361	6362	6363	9
6358	6361	6362	6369	9
6359	6360	6363	6362	9
6359	6360	6363	6368	9
6359	6360	6370	6372	9
6359	6358	6361	6362	9
6359	6358	6361	6367	9
6359	6358	6364	6365	9
6360	6359	6358	6361	9
6360	6359	6358	6364	9
6360	6363	6362	6361	9
6360	6363	6362	6369	9
6363	6360	6359	6366	9
6363	6360	6370	6372	9
6363	6362	6361	6367	9
6363	6362	6369	6371	9
6362	6363	6360	6370	9
6362	6361	6358	6364	9
6361	6362	6363	6368	9
6361	6362	6369	6371	9
6361	6358	6359	6366	9
6361	6358	6364	6365	9
6368	6363	6362	6369	9
6367	6361	6362	6369	9
6364	6358	6359	6366	9
6364	6358	6361	6367	9
6366	6359	6360	6370	9
6368	6363	6360	6370	9
6387	6390	6391	6392	9
6387	6390	6391	6398	9
6387	6388	6389	6392	9
6387	6388	6389	6399	9
6389	6392	6391	6390	9
6390	6391	6392	6397	9
6390	6391	6398	6400	9
6389	6388	6387	6390	9
6390	6387	6388	6395	9
6390	6387	6393	6394	9
6388	6387	6390	6391	9
6391	6390	6387	6393	9
6388	6389	6392	6391	9
6391	6392	6389	6399	9
6392	6391	6390	6396	9
6392	6391	6398	6400	9
6392	6389	6388	6395	9
6392	6389	6399	6401	9
6389	6392	6391	6398	9
6389	6388	6387	6393	9
6388	6389	6392	6397	9
6388	6389	6399	6401	9
6388	6387	6390	6396	9
6388	6387	6393	6394	9
6397	6392	6389	6399	9
6395	6388	6389	6399	9
6393	6387	6390	6396	9
6393	6387	6388	6395	9
6396	6390	6391	6398	9
6397	6392	6391	6398	9
6416	6419	6420	6421	9
6416	6419	6420	6427	9
6416	6417	6418	6421	9
6416	6417	6418	6428	9
6418	6421	6420	6419	9
6419	6420	6421	6426	9
6419	6420	6427	6429	9
6418	6417	6416	6419	9
6419	6416	6417	6424	9
6419	6416	6422	6423	9
6417	6416	6419	6420	9
6420	6419	6416	6422	9
6417	6418	6421	6420	9
6420	6421	6418	6428	9
6421	6420	6419	6425	9
6421	6420	6427	6429	9
6421	6418	6417	6424	9
6421	6418	6428	6430	9
6418	6421	6420	6427	9
6418	6417	6416	6422	9
6417	6418	6421	6426	9
6417	6418	6428	6430	9
6417	6416	6419	6425	9
6417	6416	6422	6423	9
6426	6421	6418	6428	9
6424	6417	6418	6428	9
6422	6416	6419	6425	9
6422	6416	6417	6424	9
6425	6419	6420	6427	9
6426	6421	6420	6427	9
6445	6448	6449	6450	9
6445	6448	6449	6456	9
6445	6446	6447	6450	9
6445	6446	6447	6457	9
6447	6450	6449	6448	9
6448	6449	6450	6455	9
6448	6449	6456	6458	9
6447	6446	6445	6448	9
6448	6445	6446	6453	9
6448	6445	6451	6452	9
6446	6445	6448	6449	9
6449	6448	6445	6451	9
6446	6447	6450	6449	9
6449	6450	6447	6457	9
6450	6449	6448	6454	9
6450	6449	6456	6458	9
6450	6447	6446	6453	9
6450	6447	6457	6459	9
6447	6450	6449	6456	9
6447	6446	6445	6451	9
6446	6447	6450	6455	9
6446	6447	6457	6459	9
6446	6445	6448	6454	9
6446	6445	6451	6452	9
6455	6450	6447	6457	9
6453	6446	6447	6457	9
6451	6445	6448	6454	9
6451	6445	6446	6453	9
6454	6448	6449	6456	9
6455	6450	6449	6456	9
6476	6475	6474	6477	9
6476	6475	6474	6480	9
6476	6479	6478	6477	9
6476	6479	6478	6485	9
6475	6474	6477	6478	9
6475	6474	6477	6483	9
6475	6474	6480	6481	9
6475	6476	6479	6478	9
6475	6476	6479	6484	9
6475	6476	6486	6488	9
6474	6475	6476	6479	9
6474	6475	6476	6486	9
6474	6477	6478	6479	9
6474	6477	6478	6485	9
6477	6474	6475	6482	9
6477	6474	6480	6481	9
6477	6478	6479	6484	9
6477	6478	6485	6487	9
6478	6477	6474	6480	9
6478	6479	6476	6486	9
6479	6478	6477	6483	9
6479	6478	6485	6487	9
6479	6476	6475	6482	9
6479	6476	6486	6488	9
6483	6477	6478	6485	9
6484	6479	6478	6485	9
6482	6475	6476	6486	9
6484	6479	6476	6486	9
6480	6474	6475	6482	9
6480	6474	6477	6483	9
6503	6506	6507	6508	9
6503	6506	6507	6514	9
6503	6504	6505	6508	9
6503	6504	6505	6515	9
6506	6507	6508	6505	9
6506	6507	6508	6513	9
6506	6507	6514	6516	9
6506	6503	6504	6505	9
6506	6503	6504	6511	9
6506	6503	6509	6510	9
6507	6506	6503	6504	9
6507	6506	6503	6509	9
6507	6508	6505	6504	9
6507	6508	6505	6515	9
6508	6507	6506	6512	9
6508	6507	6514	6516	9
6508	6505	6504	6511	9
6508	6505	6515	6517	9
6505	6508	6507	6514	9
6505	6504	6503	6509	9
6504	6505	6508	6513	9
6504	6505	6515	6517	9
6504	6503	6506	6512	9
6504	6503	6509	6510	9
6513	6508	6505	6515	9
6511	6504	6505	6515	9
6509	6503	6506	6512	9
6509	6503	6504	6511	9
6512	6506	6507	6514	9
6513	6508	6507	6514	9
1313	1312	1311	1314	9
1313	1312	1311	1317	9
1313	1316	1315	1314	9
1313	1316	1315	1322	9
1313	1323	1326	1327	9
1312	1311	1314	1315	9
1312	1311	1314	1320	9
1312	1311	1317	1318	9
1312	1313	1316	1315	9
1312	1313	1316	1321	9
1312	1313	1323	1325	9
1312	1313	1323	1326	9
1311	1312	1313	1316	9
1311	1312	1313	1323	9
1311	1314	1315	1316	9
1311	1314	1315	1322	9
1314	1311	1312	1319	9
1314	1311	1317	1318	9
1314	1315	1316	1321	9
1314	1315	1322	1324	9
1315	1314	1311	1317	9
1315	1316	1313	1323	9
1316	1315	1314	1320	9
1316	1315	1322	1324	9
1316	1313	1312	1319	9
1316	1313	1323	1325	9
1316	1313	1323	1326	9
1320	1314	1315	1322	9
1321	1316	1315	1322	9
1319	1312	1313	1323	9
1321	1316	1313	1323	9
1317	1311	1312	1319	9
1317	1311	1314	1320	9
1325	1323	1326	1327	9
1346	1347	1344	1343	9
1346	1347	1344	1354	9
1346	1345	1342	1343	9
1346	1345	1342	1348	9
1347	1344	1343	1342	9
1347	1344	1343	1350	9
1347	1344	1354	1356	9
1347	1344	1354	1357	9
1347	1346	1345	1342	9
1347	1346	1345	1351	9
1347	1346	1353	1355	9
1344	1347	1346	1345	9
1344	1347	1346	1353	9
1344	1343	1342	1345	9
1344	1343	1342	1348	9
1344	1354	1357	1358	9
1343	1344	1347	1352	9
1343	1344	1354	1356	9
1343	1344	1354	1357	9
1343	1342	1345	1351	9
1343	1342	1348	1349	9
1342	1343	1344	1354	9
1342	1345	1346	1353	9
1345	1342	1343	1350	9
1345	1342	1348	1349	9
1345	1346	1347	1352	9
1345	1346	1353	1355	9
1350	1343	1342	1348	9
1351	1345	1342	1348	9
1353	1346	1347	1352	9
1353	1346	1345	1351	9
1352	1347	1344	1354	9
1350	1343	1344	1354	9
1356	1354	1357	1358	9
6534	6533	6532	6535	9
6534	6533	6532	6538	9
6534	6537	6536	6535	9
6534	6537	6536	6543	9
6536	6535	6532	6533	9
6533	6532	6535	6541	9
6533	6532	6538	6539	9
6536	6537	6534	6533	9
6533	6534	6537	6542	9
6533	6534	6544	6546	9
6537	6534	6533	6532	9
6532	6533	6534	6544	9
6537	6536	6535	6532	9
6532	6535	6536	6543	9
6535	6532	6533	6540	9
6535	6532	6538	6539	9
6535	6536	6537	6542	9
6535	6536	6543	6545	9
6536	6535	6532	6538	9
6536	6537	6534	6544	9
6537	6536	6535	6541	9
6537	6536	6543	6545	9
6537	6534	6533	6540	9
6537	6534	6544	6546	9
6541	6535	6536	6543	9
6542	6537	6536	6543	9
6544	6534	6533	6540	9
6544	6534	6537	6542	9
6540	6533	6532	6538	9
6541	6535	6532	6538	9
6547	6548	6549	6552	9
6547	6548	6549	6559	9
6547	6550	6551	6552	9
6547	6550	6551	6558	9
6548	6549	6552	6551	9
6548	6549	6552	6557	9
6548	6549	6559	6561	9
6548	6547	6550	6551	9
6548	6547	6550	6556	9
6548	6547	6553	6554	9
6549	6548	6547	6550	9
6549	6548	6547	6553	9
6549	6552	6551	6550	9
6549	6552	6551	6558	9
6552	6549	6548	6555	9
6552	6549	6559	6561	9
6552	6551	6550	6556	9
6552	6551	6558	6560	9
6551	6552	6549	6559	9
6551	6550	6547	6553	9
6550	6551	6552	6557	9
6550	6551	6558	6560	9
6550	6547	6548	6555	9
6550	6547	6553	6554	9
6557	6552	6551	6558	9
6556	6550	6551	6558	9
6553	6547	6548	6555	9
6553	6547	6550	6556	9
6555	6548	6549	6559	9
6557	6552	6549	6559	9
6576	6577	6578	6581	9
6576	6577	6578	6588	9
6576	6579	6580	6581	9
6576	6579	6580	6587	9
6577	6578	6581	6580	9
6577	6578	6581	6586	9
6577	6578	6588	6590	9
6577	6576	6579	6580	9
6577	6576	6579	6585	9
6577	6576	6582	6583	9
6578	6577	6576	6579	9
6578	6577	6576	6582	9
6578	6581	6580	6579	9
6578	6581	6580	6587	9
6581	6578	6577	6584	9
6581	6578	6588	6590	9
6581	6580	6579	6585	9
6581	6580	6587	6589	9
6580	6581	6578	6588	9
6580	6579	6576	6582	9
6579	6580	6581	6586	9
6579	6580	6587	6589	9
6579	6576	6577	6584	9
6579	6576	6582	6583	9
6586	6581	6580	6587	9
6585	6579	6580	6587	9
6582	6576	6577	6584	9
6582	6576	6579	6585	9
6584	6577	6578	6588	9
6586	6581	6578	6588	9
6605	6606	6607	6610	9
6605	6606	6607	6617	9
6605	6608	6609	6610	9
6605	6608	6609	6616	9
6606	6607	6610	6609	9
6606	6607	6610	6615	9
6606	6607	6617	6619	9
6606	6605	6608	6609	9
6606	6605	6608	6614	9
6606	6605	6611	6612	9
6607	6606	6605	6608	9
6607	6606	6605	6611	9
6607	6610	6609	6608	9
6607	6610	6609	6616	9
6610	6607	6606	6613	9
6610	6607	6617	6619	9
6610	6609	6608	6614	9
6610	6609	6616	6618	9
6609	6610	6607	6617	9
6609	6608	6605	6611	9
6608	6609	6610	6615	9
6608	6609	6616	6618	9
6608	6605	6606	6613	9
6608	6605	6611	6612	9
6615	6610	6609	6616	9
6614	6608	6609	6616	9
6611	6605	6606	6613	9
6611	6605	6608	6614	9
6613	6606	6607	6617	9
6615	6610	6607	6617	9
6634	6635	6636	6639	9
6634	6635	6636	6646	9
6634	6637	6638	6639	9
6634	6637	6638	6645	9
6635	6636	6639	6638	9
6635	6636	6639	6644	9
6635	6636	6646	6648	9
6635	6634	6637	6638	9
6635	6634	6637	6643	9
6635	6634	6640	6641	9
6636	6635	6634	6637	9
6636	6635	6634	6640	9
6636	6639	6638	6637	9
6636	6639	6638	6645	9
6639	6636	6635	6642	9
6639	6636	6646	6648	9
6639	6638	6637	6643	9
6639	6638	6645	6647	9
6638	6639	6636	6646	9
6638	6637	6634	6640	9
6637	6638	6639	6644	9
6637	6638	6645	6647	9
6637	6634	6635	6642	9
6637	6634	6640	6641	9
6644	6639	6638	6645	9
6643	6637	6638	6645	9
6640	6634	6635	6642	9
6640	6634	6637	6643	9
6642	6635	6636	6646	9
6644	6639	6636	6646	9
6663	6666	6667	6668	9
6663	6666	6667	6674	9
6663	6664	6665	6668	9
6663	6664	6665	6675	9
6665	6668	6667	6666	9
6666	6667	6668	6673	9
6666	6667	6674	6676	9
6665	6664	6663	6666	9
6666	6663	6664	6671	9
6666	6663	6669	6670	9
6664	6663	6666	6667	9
6667	6666	6663	6669	9
6664	6665	6668	6667	9
6667	6668	6665	6675	9
6668	6667	6666	6672	9
6668	6667	6674	6676	9
6668	6665	6664	6671	9
6668	6665	6675	6677	9
6665	6668	6667	6674	9
6665	6664	6663	6669	9
6664	6665	6668	6673	9
6664	6665	6675	6677	9
6664	6663	6666	6672	9
6664	6663	6669	6670	9
6673	6668	6665	6675	9
6671	6664	6665	6675	9
6669	6663	6666	6672	9
6669	6663	6664	6671	9
6672	6666	6667	6674	9
6673	6668	6667	6674	9
6693	6694	6697	6696	9
6696	6697	6694	6704	9
6693	6692	6695	6696	9
6696	6695	6692	6698	9
6692	6693	6694	6697	9
6697	6694	6693	6700	9
6697	6694	6704	6706	9
6692	6695	6696	6697	9
6697	6696	6695	6701	9
6697	6696	6703	6705	9
6694	6697	6696	6695	9
6694	6697	6696	6703	9
6694	6693	6692	6695	9
6694	6693	6692	6698	9
6693	6694	6697	6702	9
6693	6694	6704	6706	9
6693	6692	6695	6701	9
6693	6692	6698	6699	9
6692	6693	6694	6704	9
6692	6695	6696	6703	9
6695	6692	6693	6700	9
6695	6692	6698	6699	9
6695	6696	6697	6702	9
6695	6696	6703	6705	9
6698	6692	6693	6700	9
6698	6692	6695	6701	9
6702	6697	6696	6703	9
6701	6695	6696	6703	9
6702	6697	6694	6704	9
6700	6693	6694	6704	9
6707	6708	6709	6712	9
6707	6708	6709	6719	9
6707	6710	6711	6712	9
6707	6710	6711	6718	9
6711	6712	6709	6708	9
6708	6709	6712	6717	9
6708	6709	6719	6721	9
6711	6710	6707	6708	9
6708	6707	6710	6716	9
6708	6707	6713	6714	9
6710	6707	6708	6709	9
6709	6708	6707	6713	9
6710	6711	6712	6709	9
6709	6712	6711	6718	9
6712	6709	6708	6715	9
6712	6709	6719	6721	9
6712	6711	6710	6716	9
6712	6711	6718	6720	9
6711	6712	6709	6719	9
6711	6710	6707	6713	9
6710	6711	6712	6717	9
6710	6711	6718	6720	9
6710	6707	6708	6715	9
6710	6707	6713	6714	9
6717	6712	6711	6718	9
6716	6710	6711	6718	9
6713	6707	6708	6715	9
6713	6707	6710	6716	9
6715	6708	6709	6719	9
6717	6712	6709	6719	9
6736	6737	6738	6741	9
6736	6737	6738	6748	9
6736	6739	6740	6741	9
6736	6739	6740	6747	9
6740	6741	6738	6737	9
6737	6738	6741	6746	9
6737	6738	6748	6750	9
6740	6739	6736	6737	9
6737	6736	6739	6745	9
6737	6736	6742	6743	9
6739	6736	6737	6738	9
6738	6737	6736	6742	9
6739	6740	6741	6738	9
6738	6741	6740	6747	9
6741	6738	6737	6744	9
6741	6738	6748	6750	9
6741	6740	6739	6745	9
6741	6740	6747	6749	9
6740	6741	6738	6748	9
6740	6739	6736	6742	9
6739	6740	6741	6746	9
6739	6740	6747	6749	9
6739	6736	6737	6744	9
6739	6736	6742	6743	9
6746	6741	6740	6747	9
6745	6739	6740	6747	9
6742	6736	6737	6744	9
6742	6736	6739	6745	9
6744	6737	6738	6748	9
6746	6741	6738	6748	9
6765	6766	6767	6770	9
6765	6766	6767	6777	9
6765	6768	6769	6770	9
6765	6768	6769	6776	9
6766	6767	6770	6769	9
6766	6767	6770	6775	9
6766	6767	6777	6779	9
6766	6765	6768	6769	9
6766	6765	6768	6774	9
6766	6765	6771	6772	9
6767	6766	6765	6768	9
6767	6766	6765	6771	9
6767	6770	6769	6768	9
6767	6770	6769	6776	9
6770	6767	6766	6773	9
6770	6767	6777	6779	9
6770	6769	6768	6774	9
6770	6769	6776	6778	9
6769	6770	6767	6777	9
6769	6768	6765	6771	9
6768	6769	6770	6775	9
6768	6769	6776	6778	9
6768	6765	6766	6773	9
6768	6765	6771	6772	9
6775	6770	6769	6776	9
6774	6768	6769	6776	9
6771	6765	6766	6773	9
6771	6765	6768	6774	9
6773	6766	6767	6777	9
6775	6770	6767	6777	9
6780	6781	6782	6785	9
6780	6781	6782	6792	9
6780	6783	6784	6785	9
6780	6783	6784	6791	9
6781	6782	6785	6784	9
6781	6782	6785	6790	9
6781	6782	6792	6794	9
6781	6780	6783	6784	9
6781	6780	6783	6789	9
6781	6780	6786	6787	9
6782	6781	6780	6783	9
6782	6781	6780	6786	9
6782	6785	6784	6783	9
6782	6785	6784	6791	9
6785	6782	6781	6788	9
6785	6782	6792	6794	9
6785	6784	6783	6789	9
6785	6784	6791	6793	9
6784	6785	6782	6792	9
6784	6783	6780	6786	9
6783	6784	6785	6790	9
6783	6784	6791	6793	9
6783	6780	6781	6788	9
6783	6780	6786	6787	9
6790	6785	6784	6791	9
6789	6783	6784	6791	9
6786	6780	6781	6788	9
6786	6780	6783	6789	9
6788	6781	6782	6792	9
6790	6785	6782	6792	9
6809	6810	6811	6814	9
6809	6810	6811	6821	9
6809	6812	6813	6814	9
6809	6812	6813	6820	9
6810	6811	6814	6813	9
6810	6811	6814	6819	9
6810	6811	6821	6823	9
6810	6809	6812	6813	9
6810	6809	6812	6818	9
6810	6809	6815	6816	9
6811	6810	6809	6812	9
6811	6810	6809	6815	9
6811	6814	6813	6812	9
6811	6814	6813	6820	9
6814	6811	6810	6817	9
6814	6811	6821	6823	9
6814	6813	6812	6818	9
6814	6813	6820	6822	9
6813	6814	6811	6821	9
6813	6812	6809	6815	9
6812	6813	6814	6819	9
6812	6813	6820	6822	9
6812	6809	6810	6817	9
6812	6809	6815	6816	9
6819	6814	6813	6820	9
6818	6812	6813	6820	9
6815	6809	6810	6817	9
6815	6809	6812	6818	9
6817	6810	6811	6821	9
6819	6814	6811	6821	9
6838	6839	6840	6843	9
6838	6839	6840	6850	9
6838	6841	6842	6843	9
6838	6841	6842	6849	9
6839	6840	6843	6842	9
6839	6840	6843	6848	9
6839	6840	6850	6852	9
6839	6838	6841	6842	9
6839	6838	6841	6847	9
6839	6838	6844	6845	9
6840	6839	6838	6841	9
6840	6839	6838	6844	9
6840	6843	6842	6841	9
6840	6843	6842	6849	9
6843	6840	6839	6846	9
6843	6840	6850	6852	9
6843	6842	6841	6847	9
6843	6842	6849	6851	9
6842	6843	6840	6850	9
6842	6841	6838	6844	9
6841	6842	6843	6848	9
6841	6842	6849	6851	9
6841	6838	6839	6846	9
6841	6838	6844	6845	9
6848	6843	6842	6849	9
6847	6841	6842	6849	9
6844	6838	6839	6846	9
6844	6838	6841	6847	9
6846	6839	6840	6850	9
6848	6843	6840	6850	9
6867	6870	6871	6872	9
6867	6870	6871	6878	9
6867	6868	6869	6872	9
6867	6868	6869	6879	9
6869	6872	6871	6870	9
6870	6871	6872	6877	9
6870	6871	6878	6880	9
6869	6868	6867	6870	9
6870	6867	6868	6875	9
6870	6867	6873	6874	9
6868	6867	6870	6871	9
6871	6870	6867	6873	9
6868	6869	6872	6871	9
6871	6872	6869	6879	9
6872	6871	6870	6876	9
6872	6871	6878	6880	9
6872	6869	6868	6875	9
6872	6869	6879	6881	9
6869	6872	6871	6878	9
6869	6868	6867	6873	9
6868	6869	6872	6877	9
6868	6869	6879	6881	9
6868	6867	6870	6876	9
6868	6867	6873	6874	9
6877	6872	6869	6879	9
6875	6868	6869	6879	9
6873	6867	6870	6876	9
6873	6867	6868	6875	9
6876	6870	6871	6878	9
6877	6872	6871	6878	9
1373	1374	1375	1378	9
1373	1374	1375	1385	9
1373	1376	1377	1378	9
1373	1376	1377	1384	9
1374	1375	1378	1377	9
1374	1375	1378	1383	9
1374	1375	1385	1387	9
1374	1375	1385	1388	9
1374	1373	1376	1377	9
1374	1373	1376	1382	9
1374	1373	1379	1380	9
1375	1374	1373	1376	9
1375	1374	1373	1379	9
1375	1378	1377	1376	9
1375	1378	1377	1384	9
1375	1385	1388	1389	9
1378	1375	1374	1381	9
1378	1375	1385	1387	9
1378	1375	1385	1388	9
1378	1377	1376	1382	9
1378	1377	1384	1386	9
1377	1378	1375	1385	9
1377	1376	1373	1379	9
1376	1377	1378	1383	9
1376	1377	1384	1386	9
1376	1373	1374	1381	9
1376	1373	1379	1380	9
1383	1378	1377	1384	9
1382	1376	1377	1384	9
1379	1373	1374	1381	9
1379	1373	1376	1382	9
1381	1374	1375	1385	9
1383	1378	1375	1385	9
1387	1385	1388	1389	9
1404	1407	1408	1409	9
1404	1407	1408	1415	9
1404	1405	1406	1409	9
1404	1405	1406	1416	9
1406	1409	1408	1407	9
1407	1408	1409	1414	9
1407	1408	1415	1417	9
1406	1405	1404	1407	9
1407	1404	1405	1412	9
1407	1404	1410	1411	9
1405	1404	1407	1408	9
1408	1407	1404	1410	9
1405	1406	1409	1408	9
1408	1409	1406	1416	9
1409	1408	1407	1413	9
1409	1408	1415	1417	9
1409	1406	1405	1412	9
1409	1406	1416	1418	9
1409	1406	1416	1419	9
1406	1409	1408	1415	9
1406	1405	1404	1410	9
1406	1416	1419	1420	9
1405	1406	1409	1414	9
1405	1406	1416	1418	9
1405	1406	1416	1419	9
1405	1404	1407	1413	9
1405	1404	1410	1411	9
1414	1409	1406	1416	9
1412	1405	1406	1416	9
1410	1404	1407	1413	9
1410	1404	1405	1412	9
1413	1407	1408	1415	9
1414	1409	1408	1415	9
1418	1416	1419	1420	9
6896	6897	6898	6901	9
6896	6897	6898	6908	9
6896	6899	6900	6901	9
6896	6899	6900	6907	9
6897	6898	6901	6900	9
6897	6898	6901	6906	9
6897	6898	6908	6910	9
6897	6896	6899	6900	9
6897	6896	6899	6905	9
6897	6896	6902	6903	9
6898	6897	6896	6899	9
6898	6897	6896	6902	9
6898	6901	6900	6899	9
6898	6901	6900	6907	9
6901	6898	6897	6904	9
6901	6898	6908	6910	9
6901	6900	6899	6905	9
6901	6900	6907	6909	9
6900	6901	6898	6908	9
6900	6899	6896	6902	9
6899	6900	6901	6906	9
6899	6900	6907	6909	9
6899	6896	6897	6904	9
6899	6896	6902	6903	9
6906	6901	6900	6907	9
6905	6899	6900	6907	9
6902	6896	6897	6904	9
6902	6896	6899	6905	9
6904	6897	6898	6908	9
6906	6901	6898	6908	9
6911	6912	6913	6916	9
6911	6912	6913	6923	9
6911	6914	6915	6916	9
6911	6914	6915	6922	9
6915	6916	6913	6912	9
6912	6913	6916	6921	9
6912	6913	6923	6925	9
6915	6914	6911	6912	9
6912	6911	6914	6920	9
6912	6911	6917	6918	9
6914	6911	6912	6913	9
6913	6912	6911	6917	9
6914	6915	6916	6913	9
6913	6916	6915	6922	9
6916	6913	6912	6919	9
6916	6913	6923	6925	9
6916	6915	6914	6920	9
6916	6915	6922	6924	9
6915	6916	6913	6923	9
6915	6914	6911	6917	9
6914	6915	6916	6921	9
6914	6915	6922	6924	9
6914	6911	6912	6919	9
6914	6911	6917	6918	9
6921	6916	6915	6922	9
6920	6914	6915	6922	9
6917	6911	6912	6919	9
6917	6911	6914	6920	9
6919	6912	6913	6923	9
6921	6916	6913	6923	9
6940	6941	6942	6945	9
6940	6941	6942	6952	9
6940	6943	6944	6945	9
6940	6943	6944	6951	9
6944	6945	6942	6941	9
6941	6942	6945	6950	9
6941	6942	6952	6954	9
6944	6943	6940	6941	9
6941	6940	6943	6949	9
6941	6940	6946	6947	9
6943	6940	6941	6942	9
6942	6941	6940	6946	9
6943	6944	6945	6942	9
6942	6945	6944	6951	9
6945	6942	6941	6948	9
6945	6942	6952	6954	9
6945	6944	6943	6949	9
6945	6944	6951	6953	9
6944	6945	6942	6952	9
6944	6943	6940	6946	9
6943	6944	6945	6950	9
6943	6944	6951	6953	9
6943	6940	6941	6948	9
6943	6940	6946	6947	9
6950	6945	6944	6951	9
6949	6943	6944	6951	9
6946	6940	6941	6948	9
6946	6940	6943	6949	9
6948	6941	6942	6952	9
6950	6945	6942	6952	9
6973	6972	6969	6970	9
6973	6972	6969	6975	9
6973	6974	6971	6970	9
6973	6974	6971	6981	9
6971	6970	6969	6972	9
6972	6969	6970	6977	9
6972	6969	6975	6976	9
6971	6974	6973	6972	9
6972	6973	6974	6979	9
6972	6973	6980	6982	9
6974	6973	6972	6969	9
6969	6972	6973	6980	9
6974	6971	6970	6969	9
6969	6970	6971	6981	9
6970	6969	6972	6978	9
6970	6969	6975	6976	9
6970	6971	6974	6979	9
6970	6971	6981	6983	9
6971	6970	6969	6975	9
6971	6974	6973	6980	9
6974	6971	6970	6977	9
6974	6971	6981	6983	9
6974	6973	6972	6978	9
6974	6973	6980	6982	9
6977	6970	6971	6981	9
6979	6974	6971	6981	9
6980	6973	6972	6978	9
6980	6973	6974	6979	9
6978	6972	6969	6975	9
6977	6970	6969	6975	9
1451	1456	1455	1454	9
1451	1456	1455	1457	9
1451	1452	1453	1454	9
1451	1452	1453	1459	9
1453	1454	1455	1456	9
1456	1455	1454	1463	9
1456	1455	1457	1458	9
1453	1452	1451	1456	9
1456	1451	1452	1462	9
1456	1451	1449	1450	9
1452	1451	1456	1455	9
1455	1456	1451	1449	9
1452	1453	1454	1455	9
1455	1454	1453	1459	9
1454	1455	1456	1464	9
1454	1455	1457	1458	9
1454	1453	1452	1462	9
1454	1453	1459	1460	9
1454	1453	1459	1461	9
1453	1454	1455	1457	9
1453	1452	1451	1449	9
1452	1453	1454	1463	9
1452	1453	1459	1460	9
1452	1453	1459	1461	9
1452	1451	1456	1464	9
1452	1451	1449	1450	9
1463	1454	1453	1459	9
1462	1452	1453	1459	9
1449	1451	1456	1464	9
1449	1451	1452	1462	9
1464	1456	1455	1457	9
1463	1454	1455	1457	9
6984	6987	6988	6989	9
6984	6987	6988	6995	9
6984	6985	6986	6989	9
6984	6985	6986	6996	9
6986	6989	6988	6987	9
6987	6988	6989	6994	9
6987	6988	6995	6997	9
6986	6985	6984	6987	9
6987	6984	6985	6992	9
6987	6984	6990	6991	9
6985	6984	6987	6988	9
6988	6987	6984	6990	9
6985	6986	6989	6988	9
6988	6989	6986	6996	9
6989	6988	6987	6993	9
6989	6988	6995	6997	9
6989	6986	6985	6992	9
6989	6986	6996	6998	9
6986	6989	6988	6995	9
6986	6985	6984	6990	9
6985	6986	6989	6994	9
6985	6986	6996	6998	9
6985	6984	6987	6993	9
6985	6984	6990	6991	9
6994	6989	6986	6996	9
6992	6985	6986	6996	9
6990	6984	6987	6993	9
6990	6984	6985	6992	9
6993	6987	6988	6995	9
6994	6989	6988	6995	9
1467	1466	1465	1468	9
1467	1466	1465	1471	9
1467	1470	1469	1468	9
1467	1470	1469	1476	9
1467	1477	1480	1481	9
1466	1465	1468	1469	9
1466	1465	1468	1474	9
1466	1465	1471	1472	9
1466	1467	1470	1469	9
1466	1467	1470	1475	9
1466	1467	1477	1479	9
1466	1467	1477	1480	9
1465	1466	1467	1470	9
1465	1466	1467	1477	9
1465	1468	1469	1470	9
1465	1468	1469	1476	9
1468	1465	1466	1473	9
1468	1465	1471	1472	9
1468	1469	1470	1475	9
1468	1469	1476	1478	9
1469	1468	1465	1471	9
1469	1470	1467	1477	9
1470	1469	1468	1474	9
1470	1469	1476	1478	9
1470	1467	1466	1473	9
1470	1467	1477	1479	9
1470	1467	1477	1480	9
1474	1468	1469	1476	9
1475	1470	1469	1476	9
1473	1466	1467	1477	9
1475	1470	1467	1477	9
1471	1465	1466	1473	9
1471	1465	1468	1474	9
1479	1477	1480	1481	9
7013	7016	7017	7018	9
7013	7016	7017	7024	9
7013	7014	7015	7018	9
7013	7014	7015	7025	9
7015	7018	7017	7016	9
7016	7017	7018	7023	9
7016	7017	7024	7026	9
7015	7014	7013	7016	9
7016	7013	7014	7021	9
7016	7013	7019	7020	9
7014	7013	7016	7017	9
7017	7016	7013	7019	9
7014	7015	7018	7017	9
7017	7018	7015	7025	9
7018	7017	7016	7022	9
7018	7017	7024	7026	9
7018	7015	7014	7021	9
7018	7015	7025	7027	9
7015	7018	7017	7024	9
7015	7014	7013	7019	9
7014	7015	7018	7023	9
7014	7015	7025	7027	9
7014	7013	7016	7022	9
7014	7013	7019	7020	9
7023	7018	7015	7025	9
7021	7014	7015	7025	9
7019	7013	7016	7022	9
7019	7013	7014	7021	9
7022	7016	7017	7024	9
7023	7018	7017	7024	9
7030	7029	7028	7031	9
7030	7029	7028	7034	9
7030	7033	7032	7031	9
7030	7033	7032	7039	9
7029	7028	7031	7032	9
7029	7028	7031	7037	9
7029	7028	7034	7035	9
7029	7030	7033	7032	9
7029	7030	7033	7038	9
7029	7030	7040	7042	9
7028	7029	7030	7033	9
7028	7029	7030	7040	9
7028	7031	7032	7033	9
7028	7031	7032	7039	9
7031	7028	7029	7036	9
7031	7028	7034	7035	9
7031	7032	7033	7038	9
7031	7032	7039	7041	9
7032	7031	7028	7034	9
7032	7033	7030	7040	9
7033	7032	7031	7037	9
7033	7032	7039	7041	9
7033	7030	7029	7036	9
7033	7030	7040	7042	9
7037	7031	7032	7039	9
7038	7033	7032	7039	9
7036	7029	7030	7040	9
7038	7033	7030	7040	9
7034	7028	7029	7036	9
7034	7028	7031	7037	9
7057	7058	7059	7062	9
7057	7058	7059	7069	9
7057	7060	7061	7062	9
7057	7060	7061	7068	9
7058	7059	7062	7061	9
7058	7059	7062	7067	9
7058	7059	7069	7071	9
7058	7057	7060	7061	9
7058	7057	7060	7066	9
7058	7057	7063	7064	9
7059	7058	7057	7060	9
7059	7058	7057	7063	9
7059	7062	7061	7060	9
7059	7062	7061	7068	9
7062	7059	7058	7065	9
7062	7059	7069	7071	9
7062	7061	7060	7066	9
7062	7061	7068	7070	9
7061	7062	7059	7069	9
7061	7060	7057	7063	9
7060	7061	7062	7067	9
7060	7061	7068	7070	9
7060	7057	7058	7065	9
7060	7057	7063	7064	9
7067	7062	7061	7068	9
7066	7060	7061	7068	9
7063	7057	7058	7065	9
7063	7057	7060	7066	9
7065	7058	7059	7069	9
7067	7062	7059	7069	9
7086	7087	7088	7091	9
7086	7087	7088	7098	9
7086	7089	7090	7091	9
7086	7089	7090	7097	9
7087	7088	7091	7090	9
7087	7088	7091	7096	9
7087	7088	7098	7100	9
7087	7086	7089	7090	9
7087	7086	7089	7095	9
7087	7086	7092	7093	9
7088	7087	7086	7089	9
7088	7087	7086	7092	9
7088	7091	7090	7089	9
7088	7091	7090	7097	9
7091	7088	7087	7094	9
7091	7088	7098	7100	9
7091	7090	7089	7095	9
7091	7090	7097	7099	9
7090	7091	7088	7098	9
7090	7089	7086	7092	9
7089	7090	7091	7096	9
7089	7090	7097	7099	9
7089	7086	7087	7094	9
7089	7086	7092	7093	9
7096	7091	7090	7097	9
7095	7089	7090	7097	9
7092	7086	7087	7094	9
7092	7086	7089	7095	9
7094	7087	7088	7098	9
7096	7091	7088	7098	9
7115	7118	7119	7120	9
7115	7118	7119	7126	9
7115	7116	7117	7120	9
7115	7116	7117	7127	9
7118	7119	7120	7117	9
7118	7119	7120	7125	9
7118	7119	7126	7128	9
7118	7115	7116	7117	9
7118	7115	7116	7123	9
7118	7115	7121	7122	9
7119	7118	7115	7116	9
7119	7118	7115	7121	9
7119	7120	7117	7116	9
7119	7120	7117	7127	9
7120	7119	7118	7124	9
7120	7119	7126	7128	9
7120	7117	7116	7123	9
7120	7117	7127	7129	9
7117	7120	7119	7126	9
7117	7116	7115	7121	9
7116	7117	7120	7125	9
7116	7117	7127	7129	9
7116	7115	7118	7124	9
7116	7115	7121	7122	9
7125	7120	7117	7127	9
7123	7116	7117	7127	9
7121	7115	7118	7124	9
7121	7115	7116	7123	9
7124	7118	7119	7126	9
7125	7120	7119	7126	9
7144	7147	7148	7149	9
7144	7147	7148	7155	9
7144	7145	7146	7149	9
7144	7145	7146	7156	9
7147	7148	7149	7146	9
7147	7148	7149	7154	9
7147	7148	7155	7157	9
7147	7144	7145	7146	9
7147	7144	7145	7152	9
7147	7144	7150	7151	9
7148	7147	7144	7145	9
7148	7147	7144	7150	9
7148	7149	7146	7145	9
7148	7149	7146	7156	9
7149	7148	7147	7153	9
7149	7148	7155	7157	9
7149	7146	7145	7152	9
7149	7146	7156	7158	9
7146	7149	7148	7155	9
7146	7145	7144	7150	9
7145	7146	7149	7154	9
7145	7146	7156	7158	9
7145	7144	7147	7153	9
7145	7144	7150	7151	9
7154	7149	7146	7156	9
7152	7145	7146	7156	9
7150	7144	7147	7153	9
7150	7144	7145	7152	9
7153	7147	7148	7155	9
7154	7149	7148	7155	9
1512	1513	1514	1515	9
1512	1513	1514	1520	9
1512	1517	1516	1515	9
1512	1517	1516	1518	9
1513	1514	1515	1516	9
1513	1514	1515	1524	9
1513	1514	1520	1521	9
1513	1514	1520	1522	9
1513	1512	1517	1516	9
1513	1512	1517	1525	9
1513	1512	1510	1511	9
1514	1513	1512	1517	9
1514	1513	1512	1510	9
1514	1515	1516	1517	9
1514	1515	1516	1518	9
1515	1514	1513	1523	9
1515	1514	1520	1521	9
1515	1514	1520	1522	9
1515	1516	1517	1525	9
1515	1516	1518	1519	9
1516	1515	1514	1520	9
1516	1517	1512	1510	9
1517	1516	1515	1524	9
1517	1516	1518	1519	9
1517	1512	1513	1523	9
1517	1512	1510	1511	9
1524	1515	1516	1518	9
1525	1517	1516	1518	9
1510	1512	1513	1523	9
1510	1512	1517	1525	9
1523	1513	1514	1520	9
1524	1515	1514	1520	9
7177	7178	7175	7174	9
7177	7178	7175	7185	9
7177	7176	7173	7174	9
7177	7176	7173	7179	9
7178	7175	7174	7173	9
7178	7175	7174	7181	9
7178	7175	7185	7187	9
7178	7177	7176	7173	9
7178	7177	7176	7182	9
7178	7177	7184	7186	9
7175	7178	7177	7176	9
7175	7178	7177	7184	9
7175	7174	7173	7176	9
7175	7174	7173	7179	9
7174	7175	7178	7183	9
7174	7175	7185	7187	9
7174	7173	7176	7182	9
7174	7173	7179	7180	9
7173	7174	7175	7185	9
7173	7176	7177	7184	9
7176	7173	7174	7181	9
7176	7173	7179	7180	9
7176	7177	7178	7183	9
7176	7177	7184	7186	9
7181	7174	7173	7179	9
7182	7176	7173	7179	9
7184	7177	7178	7183	9
7184	7177	7176	7182	9
7183	7178	7175	7185	9
7181	7174	7175	7185	9
7203	7202	7205	7206	9
7206	7205	7202	7208	9
7203	7204	7207	7206	9
7206	7207	7204	7214	9
7204	7203	7202	7205	9
7205	7202	7203	7210	9
7205	7202	7208	7209	9
7204	7207	7206	7205	9
7205	7206	7207	7212	9
7205	7206	7213	7215	9
7202	7205	7206	7207	9
7202	7205	7206	7213	9
7202	7203	7204	7207	9
7202	7203	7204	7214	9
7203	7202	7205	7211	9
7203	7202	7208	7209	9
7203	7204	7207	7212	9
7203	7204	7214	7216	9
7204	7203	7202	7208	9
7204	7207	7206	7213	9
7207	7204	7203	7210	9
7207	7204	7214	7216	9
7207	7206	7205	7211	9
7207	7206	7213	7215	9
7210	7203	7204	7214	9
7212	7207	7204	7214	9
7211	7205	7206	7213	9
7212	7207	7206	7213	9
7208	7202	7205	7211	9
7208	7202	7203	7210	9
72	73	68	69	9
72	73	68	66	9
72	71	70	69	9
72	71	70	76	9
70	69	68	73	9
73	68	69	80	9
73	68	66	67	9
73	68	66	65	9
70	71	72	73	9
73	72	71	81	9
73	72	74	75	9
71	72	73	68	9
68	73	72	74	9
71	70	69	68	9
68	69	70	76	9
68	66	65	79	9
69	68	73	82	9
69	68	66	67	9
69	68	66	65	9
69	70	71	81	9
69	70	76	77	9
69	70	76	78	9
70	69	68	66	9
70	71	72	74	9
71	70	69	80	9
71	70	76	77	9
71	70	76	78	9
71	72	73	82	9
71	72	74	75	9
80	69	70	76	9
81	71	70	76	9
74	72	73	82	9
74	72	71	81	9
82	73	68	66	9
80	69	68	66	9
67	66	65	79	9
7217	7218	7219	7222	9
7217	7218	7219	7229	9
7217	7220	7221	7222	9
7217	7220	7221	7228	9
7218	7219	7222	7221	9
7218	7219	7222	7227	9
7218	7219	7229	7231	9
7218	7217	7220	7221	9
7218	7217	7220	7226	9
7218	7217	7223	7224	9
7219	7218	7217	7220	9
7219	7218	7217	7223	9
7219	7222	7221	7220	9
7219	7222	7221	7228	9
7222	7219	7218	7225	9
7222	7219	7229	7231	9
7222	7221	7220	7226	9
7222	7221	7228	7230	9
7221	7222	7219	7229	9
7221	7220	7217	7223	9
7220	7221	7222	7227	9
7220	7221	7228	7230	9
7220	7217	7218	7225	9
7220	7217	7223	7224	9
7227	7222	7221	7228	9
7226	7220	7221	7228	9
7223	7217	7218	7225	9
7223	7217	7220	7226	9
7225	7218	7219	7229	9
7227	7222	7219	7229	9
7246	7247	7248	7251	9
7246	7247	7248	7258	9
7246	7249	7250	7251	9
7246	7249	7250	7257	9
7247	7248	7251	7250	9
7247	7248	7251	7256	9
7247	7248	7258	7260	9
7247	7246	7249	7250	9
7247	7246	7249	7255	9
7247	7246	7252	7253	9
7248	7247	7246	7249	9
7248	7247	7246	7252	9
7248	7251	7250	7249	9
7248	7251	7250	7257	9
7251	7248	7247	7254	9
7251	7248	7258	7260	9
7251	7250	7249	7255	9
7251	7250	7257	7259	9
7250	7251	7248	7258	9
7250	7249	7246	7252	9
7249	7250	7251	7256	9
7249	7250	7257	7259	9
7249	7246	7247	7254	9
7249	7246	7252	7253	9
7256	7251	7250	7257	9
7255	7249	7250	7257	9
7252	7246	7247	7254	9
7252	7246	7249	7255	9
7254	7247	7248	7258	9
7256	7251	7248	7258	9
7275	7278	7279	7280	9
7275	7278	7279	7286	9
7275	7276	7277	7280	9
7275	7276	7277	7287	9
7277	7280	7279	7278	9
7278	7279	7280	7285	9
7278	7279	7286	7288	9
7277	7276	7275	7278	9
7278	7275	7276	7283	9
7278	7275	7281	7282	9
7276	7275	7278	7279	9
7279	7278	7275	7281	9
7276	7277	7280	7279	9
7279	7280	7277	7287	9
7280	7279	7278	7284	9
7280	7279	7286	7288	9
7280	7277	7276	7283	9
7280	7277	7287	7289	9
7277	7280	7279	7286	9
7277	7276	7275	7281	9
7276	7277	7280	7285	9
7276	7277	7287	7289	9
7276	7275	7278	7284	9
7276	7275	7281	7282	9
7285	7280	7277	7287	9
7283	7276	7277	7287	9
7281	7275	7278	7284	9
7281	7275	7276	7283	9
7284	7278	7279	7286	9
7285	7280	7279	7286	9
7304	7307	7308	7309	9
7304	7307	7308	7315	9
7304	7305	7306	7309	9
7304	7305	7306	7316	9
7306	7309	7308	7307	9
7307	7308	7309	7314	9
7307	7308	7315	7317	9
7306	7305	7304	7307	9
7307	7304	7305	7312	9
7307	7304	7310	7311	9
7305	7304	7307	7308	9
7308	7307	7304	7310	9
7305	7306	7309	7308	9
7308	7309	7306	7316	9
7309	7308	7307	7313	9
7309	7308	7315	7317	9
7309	7306	7305	7312	9
7309	7306	7316	7318	9
7306	7309	7308	7315	9
7306	7305	7304	7310	9
7305	7306	7309	7314	9
7305	7306	7316	7318	9
7305	7304	7307	7313	9
7305	7304	7310	7311	9
7314	7309	7306	7316	9
7312	7305	7306	7316	9
7310	7304	7307	7313	9
7310	7304	7305	7312	9
7313	7307	7308	7315	9
7314	7309	7308	7315	9
7333	7334	7335	7338	9
7333	7334	7335	7345	9
7333	7336	7337	7338	9
7333	7336	7337	7344	9
7337	7338	7335	7334	9
7334	7335	7338	7343	9
7334	7335	7345	7347	9
7337	7336	7333	7334	9
7334	7333	7336	7342	9
7334	7333	7339	7340	9
7336	7333	7334	7335	9
7335	7334	7333	7339	9
7336	7337	7338	7335	9
7335	7338	7337	7344	9
7338	7335	7334	7341	9
7338	7335	7345	7347	9
7338	7337	7336	7342	9
7338	7337	7344	7346	9
7337	7338	7335	7345	9
7337	7336	7333	7339	9
7336	7337	7338	7343	9
7336	7337	7344	7346	9
7336	7333	7334	7341	9
7336	7333	7339	7340	9
7343	7338	7337	7344	9
7342	7336	7337	7344	9
7339	7333	7334	7341	9
7339	7333	7336	7342	9
7341	7334	7335	7345	9
7343	7338	7335	7345	9
1528	1527	1526	1529	9
1528	1527	1526	1532	9
1528	1531	1530	1529	9
1528	1531	1530	1537	9
1528	1538	1541	1542	9
1527	1526	1529	1530	9
1527	1526	1529	1535	9
1527	1526	1532	1533	9
1527	1528	1531	1530	9
1527	1528	1531	1536	9
1527	1528	1538	1540	9
1527	1528	1538	1541	9
1526	1527	1528	1531	9
1526	1527	1528	1538	9
1526	1529	1530	1531	9
1526	1529	1530	1537	9
1529	1526	1527	1534	9
1529	1526	1532	1533	9
1529	1530	1531	1536	9
1529	1530	1537	1539	9
1530	1529	1526	1532	9
1530	1531	1528	1538	9
1531	1530	1529	1535	9
1531	1530	1537	1539	9
1531	1528	1527	1534	9
1531	1528	1538	1540	9
1531	1528	1538	1541	9
1535	1529	1530	1537	9
1536	1531	1530	1537	9
1534	1527	1528	1538	9
1536	1531	1528	1538	9
1532	1526	1527	1534	9
1532	1526	1529	1535	9
1540	1538	1541	1542	9
1577	1578	1573	1574	9
1577	1578	1573	1571	9
1577	1576	1575	1574	9
1577	1576	1575	1581	9
1575	1574	1573	1578	9
1578	1573	1574	1584	9
1578	1573	1571	1572	9
1575	1576	1577	1578	9
1578	1577	1576	1585	9
1578	1577	1579	1580	9
1576	1577	1578	1573	9
1573	1578	1577	1579	9
1576	1575	1574	1573	9
1573	1574	1575	1581	9
1574	1573	1578	1586	9
1574	1573	1571	1572	9
1574	1575	1576	1585	9
1574	1575	1581	1582	9
1574	1575	1581	1583	9
1575	1574	1573	1571	9
1575	1576	1577	1579	9
1576	1575	1574	1584	9
1576	1575	1581	1582	9
1576	1575	1581	1583	9
1576	1577	1578	1586	9
1576	1577	1579	1580	9
1584	1574	1575	1581	9
1585	1576	1575	1581	9
1579	1577	1578	1586	9
1579	1577	1576	1585	9
1586	1578	1573	1571	9
1584	1574	1573	1571	9
7362	7363	7364	7367	9
7362	7363	7364	7374	9
7362	7365	7366	7367	9
7362	7365	7366	7373	9
7366	7367	7364	7363	9
7363	7364	7367	7372	9
7363	7364	7374	7376	9
7366	7365	7362	7363	9
7363	7362	7365	7371	9
7363	7362	7368	7369	9
7365	7362	7363	7364	9
7364	7363	7362	7368	9
7365	7366	7367	7364	9
7364	7367	7366	7373	9
7367	7364	7363	7370	9
7367	7364	7374	7376	9
7367	7366	7365	7371	9
7367	7366	7373	7375	9
7366	7367	7364	7374	9
7366	7365	7362	7368	9
7365	7366	7367	7372	9
7365	7366	7373	7375	9
7365	7362	7363	7370	9
7365	7362	7368	7369	9
7372	7367	7366	7373	9
7371	7365	7366	7373	9
7368	7362	7363	7370	9
7368	7362	7365	7371	9
7370	7363	7364	7374	9
7372	7367	7364	7374	9
1587	1588	1589	1592	9
1587	1588	1589	1599	9
1587	1590	1591	1592	9
1587	1590	1591	1598	9
1588	1589	1592	1591	9
1588	1589	1592	1597	9
1588	1589	1599	1601	9
1588	1589	1599	1602	9
1588	1587	1590	1591	9
1588	1587	1590	1596	9
1588	1587	1593	1594	9
1589	1588	1587	1590	9
1589	1588	1587	1593	9
1589	1592	1591	1590	9
1589	1592	1591	1598	9
1589	1599	1602	1603	9
1592	1589	1588	1595	9
1592	1589	1599	1601	9
1592	1589	1599	1602	9
1592	1591	1590	1596	9
1592	1591	1598	1600	9
1591	1592	1589	1599	9
1591	1590	1587	1593	9
1590	1591	1592	1597	9
1590	1591	1598	1600	9
1590	1587	1588	1595	9
1590	1587	1593	1594	9
1597	1592	1591	1598	9
1596	1590	1591	1598	9
1593	1587	1588	1595	9
1593	1587	1590	1596	9
1595	1588	1589	1599	9
1597	1592	1589	1599	9
1601	1599	1602	1603	9
1636	1635	1634	1639	9
1636	1635	1634	1632	9
1636	1637	1638	1639	9
1636	1637	1638	1640	9
1635	1634	1639	1638	9
1635	1634	1639	1647	9
1635	1634	1632	1633	9
1635	1636	1637	1638	9
1635	1636	1637	1646	9
1635	1636	1642	1643	9
1635	1636	1642	1644	9
1634	1635	1636	1637	9
1634	1635	1636	1642	9
1634	1639	1638	1637	9
1634	1639	1638	1640	9
1639	1634	1635	1645	9
1639	1634	1632	1633	9
1639	1638	1637	1646	9
1639	1638	1640	1641	9
1638	1639	1634	1632	9
1638	1637	1636	1642	9
1637	1638	1639	1647	9
1637	1638	1640	1641	9
1637	1636	1635	1645	9
1637	1636	1642	1643	9
1637	1636	1642	1644	9
1647	1639	1638	1640	9
1646	1637	1638	1640	9
1645	1635	1636	1642	9
1646	1637	1636	1642	9
1632	1634	1635	1645	9
1632	1634	1639	1647	9
7377	7380	7381	7382	9
7377	7380	7381	7388	9
7377	7378	7379	7382	9
7377	7378	7379	7389	9
7379	7382	7381	7380	9
7380	7381	7382	7387	9
7380	7381	7388	7390	9
7379	7378	7377	7380	9
7380	7377	7378	7385	9
7380	7377	7383	7384	9
7378	7377	7380	7381	9
7381	7380	7377	7383	9
7378	7379	7382	7381	9
7381	7382	7379	7389	9
7382	7381	7380	7386	9
7382	7381	7388	7390	9
7382	7379	7378	7385	9
7382	7379	7389	7391	9
7379	7382	7381	7388	9
7379	7378	7377	7383	9
7378	7379	7382	7387	9
7378	7379	7389	7391	9
7378	7377	7380	7386	9
7378	7377	7383	7384	9
7387	7382	7379	7389	9
7385	7378	7379	7389	9
7383	7377	7380	7386	9
7383	7377	7378	7385	9
7386	7380	7381	7388	9
7387	7382	7381	7388	9
102	103	104	105	9
102	103	104	106	9
102	101	100	105	9
102	101	100	98	9
103	104	105	100	9
103	104	105	114	9
103	104	106	107	9
103	102	101	100	9
103	102	101	112	9
103	102	108	109	9
103	102	108	110	9
104	103	102	101	9
104	103	102	108	9
104	105	100	101	9
104	105	100	98	9
105	104	103	113	9
105	104	106	107	9
105	100	101	112	9
105	100	98	99	9
105	100	98	97	9
100	105	104	106	9
100	101	102	108	9
100	98	97	111	9
101	100	105	114	9
101	100	98	99	9
101	100	98	97	9
101	102	103	113	9
101	102	108	109	9
101	102	108	110	9
114	105	100	98	9
112	101	100	98	9
113	103	102	108	9
112	101	102	108	9
106	104	103	113	9
106	104	105	114	9
99	98	97	111	9
7392	7395	7396	7397	9
7392	7395	7396	7403	9
7392	7393	7394	7397	9
7392	7393	7394	7404	9
7394	7397	7396	7395	9
7395	7396	7397	7402	9
7395	7396	7403	7405	9
7394	7393	7392	7395	9
7395	7392	7393	7400	9
7395	7392	7398	7399	9
7393	7392	7395	7396	9
7396	7395	7392	7398	9
7393	7394	7397	7396	9
7396	7397	7394	7404	9
7397	7396	7395	7401	9
7397	7396	7403	7405	9
7397	7394	7393	7400	9
7397	7394	7404	7406	9
7394	7397	7396	7403	9
7394	7393	7392	7398	9
7393	7394	7397	7402	9
7393	7394	7404	7406	9
7393	7392	7395	7401	9
7393	7392	7398	7399	9
7402	7397	7394	7404	9
7400	7393	7394	7404	9
7398	7392	7395	7401	9
7398	7392	7393	7400	9
7401	7395	7396	7403	9
7402	7397	7396	7403	9
7421	7424	7425	7426	9
7421	7424	7425	7432	9
7421	7422	7423	7426	9
7421	7422	7423	7433	9
7423	7426	7425	7424	9
7424	7425	7426	7431	9
7424	7425	7432	7434	9
7423	7422	7421	7424	9
7424	7421	7422	7429	9
7424	7421	7427	7428	9
7422	7421	7424	7425	9
7425	7424	7421	7427	9
7422	7423	7426	7425	9
7425	7426	7423	7433	9
7426	7425	7424	7430	9
7426	7425	7432	7434	9
7426	7423	7422	7429	9
7426	7423	7433	7435	9
7423	7426	7425	7432	9
7423	7422	7421	7427	9
7422	7423	7426	7431	9
7422	7423	7433	7435	9
7422	7421	7424	7430	9
7422	7421	7427	7428	9
7431	7426	7423	7433	9
7429	7422	7423	7433	9
7427	7421	7424	7430	9
7427	7421	7422	7429	9
7430	7424	7425	7432	9
7431	7426	7425	7432	9
7450	7453	7454	7455	9
7450	7453	7454	7461	9
7450	7451	7452	7455	9
7450	7451	7452	7462	9
7452	7455	7454	7453	9
7453	7454	7455	7460	9
7453	7454	7461	7463	9
7452	7451	7450	7453	9
7453	7450	7451	7458	9
7453	7450	7456	7457	9
7451	7450	7453	7454	9
7454	7453	7450	7456	9
7451	7452	7455	7454	9
7454	7455	7452	7462	9
7455	7454	7453	7459	9
7455	7454	7461	7463	9
7455	7452	7451	7458	9
7455	7452	7462	7464	9
7452	7455	7454	7461	9
7452	7451	7450	7456	9
7451	7452	7455	7460	9
7451	7452	7462	7464	9
7451	7450	7453	7459	9
7451	7450	7456	7457	9
7460	7455	7452	7462	9
7458	7451	7452	7462	9
7456	7450	7453	7459	9
7456	7450	7451	7458	9
7459	7453	7454	7461	9
7460	7455	7454	7461	9
7479	7482	7483	7484	9
7479	7482	7483	7490	9
7479	7480	7481	7484	9
7479	7480	7481	7491	9
7481	7484	7483	7482	9
7482	7483	7484	7489	9
7482	7483	7490	7492	9
7481	7480	7479	7482	9
7482	7479	7480	7487	9
7482	7479	7485	7486	9
7480	7479	7482	7483	9
7483	7482	7479	7485	9
7480	7481	7484	7483	9
7483	7484	7481	7491	9
7484	7483	7482	7488	9
7484	7483	7490	7492	9
7484	7481	7480	7487	9
7484	7481	7491	7493	9
7481	7484	7483	7490	9
7481	7480	7479	7485	9
7480	7481	7484	7489	9
7480	7481	7491	7493	9
7480	7479	7482	7488	9
7480	7479	7485	7486	9
7489	7484	7481	7491	9
7487	7480	7481	7491	9
7485	7479	7482	7488	9
7485	7479	7480	7487	9
7488	7482	7483	7490	9
7489	7484	7483	7490	9
7494	7495	7496	7499	9
7494	7495	7496	7506	9
7494	7497	7498	7499	9
7494	7497	7498	7505	9
7495	7496	7499	7498	9
7495	7496	7499	7504	9
7495	7496	7506	7508	9
7495	7494	7497	7498	9
7495	7494	7497	7503	9
7495	7494	7500	7501	9
7496	7495	7494	7497	9
7496	7495	7494	7500	9
7496	7499	7498	7497	9
7496	7499	7498	7505	9
7499	7496	7495	7502	9
7499	7496	7506	7508	9
7499	7498	7497	7503	9
7499	7498	7505	7507	9
7498	7499	7496	7506	9
7498	7497	7494	7500	9
7497	7498	7499	7504	9
7497	7498	7505	7507	9
7497	7494	7495	7502	9
7497	7494	7500	7501	9
7504	7499	7498	7505	9
7503	7497	7498	7505	9
7500	7494	7495	7502	9
7500	7494	7497	7503	9
7502	7495	7496	7506	9
7504	7499	7496	7506	9
7523	7526	7527	7528	9
7523	7526	7527	7534	9
7523	7524	7525	7528	9
7523	7524	7525	7535	9
7526	7527	7528	7525	9
7526	7527	7528	7533	9
7526	7527	7534	7536	9
7526	7523	7524	7525	9
7526	7523	7524	7531	9
7526	7523	7529	7530	9
7527	7526	7523	7524	9
7527	7526	7523	7529	9
7527	7528	7525	7524	9
7527	7528	7525	7535	9
7528	7527	7526	7532	9
7528	7527	7534	7536	9
7528	7525	7524	7531	9
7528	7525	7535	7537	9
7525	7528	7527	7534	9
7525	7524	7523	7529	9
7524	7525	7528	7533	9
7524	7525	7535	7537	9
7524	7523	7526	7532	9
7524	7523	7529	7530	9
7533	7528	7525	7535	9
7531	7524	7525	7535	9
7529	7523	7526	7532	9
7529	7523	7524	7531	9
7532	7526	7527	7534	9
7533	7528	7527	7534	9
1648	1651	1652	1653	9
1648	1651	1652	1659	9
1648	1649	1650	1653	9
1648	1649	1650	1660	9
1650	1653	1652	1651	9
1651	1652	1653	1658	9
1651	1652	1659	1661	9
1650	1649	1648	1651	9
1651	1648	1649	1656	9
1651	1648	1654	1655	9
1649	1648	1651	1652	9
1652	1651	1648	1654	9
1649	1650	1653	1652	9
1652	1653	1650	1660	9
1653	1652	1651	1657	9
1653	1652	1659	1661	9
1653	1650	1649	1656	9
1653	1650	1660	1662	9
1653	1650	1660	1663	9
1650	1653	1652	1659	9
1650	1649	1648	1654	9
1650	1660	1663	1664	9
1649	1650	1653	1658	9
1649	1650	1660	1662	9
1649	1650	1660	1663	9
1649	1648	1651	1657	9
1649	1648	1654	1655	9
1658	1653	1650	1660	9
1656	1649	1650	1660	9
1654	1648	1651	1657	9
1654	1648	1649	1656	9
1657	1651	1652	1659	9
1658	1653	1652	1659	9
1662	1660	1663	1664	9
7552	7555	7556	7557	9
7552	7555	7556	7563	9
7552	7553	7554	7557	9
7552	7553	7554	7564	9
7555	7556	7557	7554	9
7555	7556	7557	7562	9
7555	7556	7563	7565	9
7555	7552	7553	7554	9
7555	7552	7553	7560	9
7555	7552	7558	7559	9
7556	7555	7552	7553	9
7556	7555	7552	7558	9
7556	7557	7554	7553	9
7556	7557	7554	7564	9
7557	7556	7555	7561	9
7557	7556	7563	7565	9
7557	7554	7553	7560	9
7557	7554	7564	7566	9
7554	7557	7556	7563	9
7554	7553	7552	7558	9
7553	7554	7557	7562	9
7553	7554	7564	7566	9
7553	7552	7555	7561	9
7553	7552	7558	7559	9
7562	7557	7554	7564	9
7560	7553	7554	7564	9
7558	7552	7555	7561	9
7558	7552	7553	7560	9
7561	7555	7556	7563	9
7562	7557	7556	7563	9
7567	7568	7569	7572	9
7567	7568	7569	7579	9
7567	7570	7571	7572	9
7567	7570	7571	7578	9
7568	7569	7572	7571	9
7568	7569	7572	7577	9
7568	7569	7579	7581	9
7568	7567	7570	7571	9
7568	7567	7570	7576	9
7568	7567	7573	7574	9
7569	7568	7567	7570	9
7569	7568	7567	7573	9
7569	7572	7571	7570	9
7569	7572	7571	7578	9
7572	7569	7568	7575	9
7572	7569	7579	7581	9
7572	7571	7570	7576	9
7572	7571	7578	7580	9
7571	7572	7569	7579	9
7571	7570	7567	7573	9
7570	7571	7572	7577	9
7570	7571	7578	7580	9
7570	7567	7568	7575	9
7570	7567	7573	7574	9
7577	7572	7571	7578	9
7576	7570	7571	7578	9
7573	7567	7568	7575	9
7573	7567	7570	7576	9
7575	7568	7569	7579	9
7577	7572	7569	7579	9
7600	7601	7598	7597	9
7600	7601	7598	7608	9
7600	7599	7596	7597	9
7600	7599	7596	7602	9
7601	7598	7597	7596	9
7601	7598	7597	7604	9
7601	7598	7608	7610	9
7601	7600	7599	7596	9
7601	7600	7599	7605	9
7601	7600	7607	7609	9
7598	7601	7600	7599	9
7598	7601	7600	7607	9
7598	7597	7596	7599	9
7598	7597	7596	7602	9
7597	7598	7601	7606	9
7597	7598	7608	7610	9
7597	7596	7599	7605	9
7597	7596	7602	7603	9
7596	7597	7598	7608	9
7596	7599	7600	7607	9
7599	7596	7597	7604	9
7599	7596	7602	7603	9
7599	7600	7601	7606	9
7599	7600	7607	7609	9
7604	7597	7596	7602	9
7605	7599	7596	7602	9
7607	7600	7601	7606	9
7607	7600	7599	7605	9
7606	7601	7598	7608	9
7604	7597	7598	7608	9
7625	7628	7629	7630	9
7625	7628	7629	7636	9
7625	7626	7627	7630	9
7625	7626	7627	7637	9
7627	7630	7629	7628	9
7628	7629	7630	7635	9
7628	7629	7636	7638	9
7627	7626	7625	7628	9
7628	7625	7626	7633	9
7628	7625	7631	7632	9
7626	7625	7628	7629	9
7629	7628	7625	7631	9
7626	7627	7630	7629	9
7629	7630	7627	7637	9
7630	7629	7628	7634	9
7630	7629	7636	7638	9
7630	7627	7626	7633	9
7630	7627	7637	7639	9
7627	7630	7629	7636	9
7627	7626	7625	7631	9
7626	7627	7630	7635	9
7626	7627	7637	7639	9
7626	7625	7628	7634	9
7626	7625	7631	7632	9
7635	7630	7627	7637	9
7633	7626	7627	7637	9
7631	7625	7628	7634	9
7631	7625	7626	7633	9
7634	7628	7629	7636	9
7635	7630	7629	7636	9
1679	1682	1683	1684	9
1679	1682	1683	1690	9
1679	1680	1681	1684	9
1679	1680	1681	1691	9
1681	1684	1683	1682	9
1682	1683	1684	1689	9
1682	1683	1690	1692	9
1681	1680	1679	1682	9
1682	1679	1680	1687	9
1682	1679	1685	1686	9
1680	1679	1682	1683	9
1683	1682	1679	1685	9
1680	1681	1684	1683	9
1683	1684	1681	1691	9
1684	1683	1682	1688	9
1684	1683	1690	1692	9
1684	1681	1680	1687	9
1684	1681	1691	1693	9
1684	1681	1691	1694	9
1681	1684	1683	1690	9
1681	1680	1679	1685	9
1681	1691	1694	1695	9
1680	1681	1684	1689	9
1680	1681	1691	1693	9
1680	1681	1691	1694	9
1680	1679	1682	1688	9
1680	1679	1685	1686	9
1689	1684	1681	1691	9
1687	1680	1681	1691	9
1685	1679	1682	1688	9
1685	1679	1680	1687	9
1688	1682	1683	1690	9
1689	1684	1683	1690	9
1693	1691	1694	1695	9
7640	7643	7644	7645	9
7640	7643	7644	7651	9
7640	7641	7642	7645	9
7640	7641	7642	7652	9
7642	7645	7644	7643	9
7643	7644	7645	7650	9
7643	7644	7651	7653	9
7642	7641	7640	7643	9
7643	7640	7641	7648	9
7643	7640	7646	7647	9
7641	7640	7643	7644	9
7644	7643	7640	7646	9
7641	7642	7645	7644	9
7644	7645	7642	7652	9
7645	7644	7643	7649	9
7645	7644	7651	7653	9
7645	7642	7641	7648	9
7645	7642	7652	7654	9
7642	7645	7644	7651	9
7642	7641	7640	7646	9
7641	7642	7645	7650	9
7641	7642	7652	7654	9
7641	7640	7643	7649	9
7641	7640	7646	7647	9
7650	7645	7642	7652	9
7648	7641	7642	7652	9
7646	7640	7643	7649	9
7646	7640	7641	7648	9
7649	7643	7644	7651	9
7650	7645	7644	7651	9
7669	7672	7673	7674	9
7669	7672	7673	7680	9
7669	7670	7671	7674	9
7669	7670	7671	7681	9
7671	7674	7673	7672	9
7672	7673	7674	7679	9
7672	7673	7680	7682	9
7671	7670	7669	7672	9
7672	7669	7670	7677	9
7672	7669	7675	7676	9
7670	7669	7672	7673	9
7673	7672	7669	7675	9
7670	7671	7674	7673	9
7673	7674	7671	7681	9
7674	7673	7672	7678	9
7674	7673	7680	7682	9
7674	7671	7670	7677	9
7674	7671	7681	7683	9
7671	7674	7673	7680	9
7671	7670	7669	7675	9
7670	7671	7674	7679	9
7670	7671	7681	7683	9
7670	7669	7672	7678	9
7670	7669	7675	7676	9
7679	7674	7671	7681	9
7677	7670	7671	7681	9
7675	7669	7672	7678	9
7675	7669	7670	7677	9
7678	7672	7673	7680	9
7679	7674	7673	7680	9
7698	7701	7702	7703	9
7698	7701	7702	7709	9
7698	7699	7700	7703	9
7698	7699	7700	7710	9
7700	7703	7702	7701	9
7701	7702	7703	7708	9
7701	7702	7709	7711	9
7700	7699	7698	7701	9
7701	7698	7699	7706	9
7701	7698	7704	7705	9
7699	7698	7701	7702	9
7702	7701	7698	7704	9
7699	7700	7703	7702	9
7702	7703	7700	7710	9
7703	7702	7701	7707	9
7703	7702	7709	7711	9
7703	7700	7699	7706	9
7703	7700	7710	7712	9
7700	7703	7702	7709	9
7700	7699	7698	7704	9
7699	7700	7703	7708	9
7699	7700	7710	7712	9
7699	7698	7701	7707	9
7699	7698	7704	7705	9
7708	7703	7700	7710	9
7706	7699	7700	7710	9
7704	7698	7701	7707	9
7704	7698	7699	7706	9
7707	7701	7702	7709	9
7708	7703	7702	7709	9
1710	1711	1712	1715	9
1710	1711	1712	1722	9
1710	1713	1714	1715	9
1710	1713	1714	1721	9
1711	1712	1715	1714	9
1711	1712	1715	1720	9
1711	1712	1722	1724	9
1711	1712	1722	1725	9
1711	1710	1713	1714	9
1711	1710	1713	1719	9
1711	1710	1716	1717	9
1712	1711	1710	1713	9
1712	1711	1710	1716	9
1712	1715	1714	1713	9
1712	1715	1714	1721	9
1712	1722	1725	1726	9
1715	1712	1711	1718	9
1715	1712	1722	1724	9
1715	1712	1722	1725	9
1715	1714	1713	1719	9
1715	1714	1721	1723	9
1714	1715	1712	1722	9
1714	1713	1710	1716	9
1713	1714	1715	1720	9
1713	1714	1721	1723	9
1713	1710	1711	1718	9
1713	1710	1716	1717	9
1720	1715	1714	1721	9
1719	1713	1714	1721	9
1716	1710	1711	1718	9
1716	1710	1713	1719	9
1718	1711	1712	1722	9
1720	1715	1712	1722	9
1724	1722	1725	1726	9
7731	7732	7729	7728	9
7731	7732	7729	7739	9
7731	7730	7727	7728	9
7731	7730	7727	7733	9
7727	7728	7729	7732	9
7732	7729	7728	7735	9
7732	7729	7739	7741	9
7727	7730	7731	7732	9
7732	7731	7730	7736	9
7732	7731	7738	7740	9
7730	7731	7732	7729	9
7729	7732	7731	7738	9
7730	7727	7728	7729	9
7729	7728	7727	7733	9
7728	7729	7732	7737	9
7728	7729	7739	7741	9
7728	7727	7730	7736	9
7728	7727	7733	7734	9
7727	7728	7729	7739	9
7727	7730	7731	7738	9
7730	7727	7728	7735	9
7730	7727	7733	7734	9
7730	7731	7732	7737	9
7730	7731	7738	7740	9
7733	7727	7728	7735	9
7733	7727	7730	7736	9
7737	7732	7731	7738	9
7736	7730	7731	7738	9
7737	7732	7729	7739	9
7735	7728	7729	7739	9
7756	7757	7758	7761	9
7756	7757	7758	7768	9
7756	7759	7760	7761	9
7756	7759	7760	7767	9
7760	7761	7758	7757	9
7757	7758	7761	7766	9
7757	7758	7768	7770	9
7760	7759	7756	7757	9
7757	7756	7759	7765	9
7757	7756	7762	7763	9
7759	7756	7757	7758	9
7758	7757	7756	7762	9
7759	7760	7761	7758	9
7758	7761	7760	7767	9
7761	7758	7757	7764	9
7761	7758	7768	7770	9
7761	7760	7759	7765	9
7761	7760	7767	7769	9
7760	7761	7758	7768	9
7760	7759	7756	7762	9
7759	7760	7761	7766	9
7759	7760	7767	7769	9
7759	7756	7757	7764	9
7759	7756	7762	7763	9
7766	7761	7760	7767	9
7765	7759	7760	7767	9
7762	7756	7757	7764	9
7762	7756	7759	7765	9
7764	7757	7758	7768	9
7766	7761	7758	7768	9
7785	7786	7787	7790	9
7785	7786	7787	7797	9
7785	7788	7789	7790	9
7785	7788	7789	7796	9
7786	7787	7790	7789	9
7786	7787	7790	7795	9
7786	7787	7797	7799	9
7786	7785	7788	7789	9
7786	7785	7788	7794	9
7786	7785	7791	7792	9
7787	7786	7785	7788	9
7787	7786	7785	7791	9
7787	7790	7789	7788	9
7787	7790	7789	7796	9
7790	7787	7786	7793	9
7790	7787	7797	7799	9
7790	7789	7788	7794	9
7790	7789	7796	7798	9
7789	7790	7787	7797	9
7789	7788	7785	7791	9
7788	7789	7790	7795	9
7788	7789	7796	7798	9
7788	7785	7786	7793	9
7788	7785	7791	7792	9
7795	7790	7789	7796	9
7794	7788	7789	7796	9
7791	7785	7786	7793	9
7791	7785	7788	7794	9
7793	7786	7787	7797	9
7795	7790	7787	7797	9
1741	1742	1743	1746	9
1741	1742	1743	1753	9
1741	1744	1745	1746	9
1741	1744	1745	1752	9
1742	1743	1746	1745	9
1742	1743	1746	1751	9
1742	1743	1753	1755	9
1742	1743	1753	1756	9
1742	1741	1744	1745	9
1742	1741	1744	1750	9
1742	1741	1747	1748	9
1743	1742	1741	1744	9
1743	1742	1741	1747	9
1743	1746	1745	1744	9
1743	1746	1745	1752	9
1743	1753	1756	1757	9
1746	1743	1742	1749	9
1746	1743	1753	1755	9
1746	1743	1753	1756	9
1746	1745	1744	1750	9
1746	1745	1752	1754	9
1745	1746	1743	1753	9
1745	1744	1741	1747	9
1744	1745	1746	1751	9
1744	1745	1752	1754	9
1744	1741	1742	1749	9
1744	1741	1747	1748	9
1751	1746	1745	1752	9
1750	1744	1745	1752	9
1747	1741	1742	1749	9
1747	1741	1744	1750	9
1749	1742	1743	1753	9
1751	1746	1743	1753	9
1755	1753	1756	1757	9
7814	7815	7816	7819	9
7814	7815	7816	7826	9
7814	7817	7818	7819	9
7814	7817	7818	7825	9
7815	7816	7819	7818	9
7815	7816	7819	7824	9
7815	7816	7826	7828	9
7815	7814	7817	7818	9
7815	7814	7817	7823	9
7815	7814	7820	7821	9
7816	7815	7814	7817	9
7816	7815	7814	7820	9
7816	7819	7818	7817	9
7816	7819	7818	7825	9
7819	7816	7815	7822	9
7819	7816	7826	7828	9
7819	7818	7817	7823	9
7819	7818	7825	7827	9
7818	7819	7816	7826	9
7818	7817	7814	7820	9
7817	7818	7819	7824	9
7817	7818	7825	7827	9
7817	7814	7815	7822	9
7817	7814	7820	7821	9
7824	7819	7818	7825	9
7823	7817	7818	7825	9
7820	7814	7815	7822	9
7820	7814	7817	7823	9
7822	7815	7816	7826	9
7824	7819	7816	7826	9
7843	7844	7845	7848	9
7843	7844	7845	7855	9
7843	7846	7847	7848	9
7843	7846	7847	7854	9
7844	7845	7848	7847	9
7844	7845	7848	7853	9
7844	7845	7855	7857	9
7844	7843	7846	7847	9
7844	7843	7846	7852	9
7844	7843	7849	7850	9
7845	7844	7843	7846	9
7845	7844	7843	7849	9
7845	7848	7847	7846	9
7845	7848	7847	7854	9
7848	7845	7844	7851	9
7848	7845	7855	7857	9
7848	7847	7846	7852	9
7848	7847	7854	7856	9
7847	7848	7845	7855	9
7847	7846	7843	7849	9
7846	7847	7848	7853	9
7846	7847	7854	7856	9
7846	7843	7844	7851	9
7846	7843	7849	7850	9
7853	7848	7847	7854	9
7852	7846	7847	7854	9
7849	7843	7844	7851	9
7849	7843	7846	7852	9
7851	7844	7845	7855	9
7853	7848	7845	7855	9
7872	7873	7874	7877	9
7872	7873	7874	7884	9
7872	7875	7876	7877	9
7872	7875	7876	7883	9
7873	7874	7877	7876	9
7873	7874	7877	7882	9
7873	7874	7884	7886	9
7873	7872	7875	7876	9
7873	7872	7875	7881	9
7873	7872	7878	7879	9
7874	7873	7872	7875	9
7874	7873	7872	7878	9
7874	7877	7876	7875	9
7874	7877	7876	7883	9
7877	7874	7873	7880	9
7877	7874	7884	7886	9
7877	7876	7875	7881	9
7877	7876	7883	7885	9
7876	7877	7874	7884	9
7876	7875	7872	7878	9
7875	7876	7877	7882	9
7875	7876	7883	7885	9
7875	7872	7873	7880	9
7875	7872	7878	7879	9
7882	7877	7876	7883	9
7881	7875	7876	7883	9
7878	7872	7873	7880	9
7878	7872	7875	7881	9
7880	7873	7874	7884	9
7882	7877	7874	7884	9
7901	7902	7903	7906	9
7901	7902	7903	7913	9
7901	7904	7905	7906	9
7901	7904	7905	7912	9
7902	7903	7906	7905	9
7902	7903	7906	7911	9
7902	7903	7913	7915	9
7902	7901	7904	7905	9
7902	7901	7904	7910	9
7902	7901	7907	7908	9
7903	7902	7901	7904	9
7903	7902	7901	7907	9
7903	7906	7905	7904	9
7903	7906	7905	7912	9
7906	7903	7902	7909	9
7906	7903	7913	7915	9
7906	7905	7904	7910	9
7906	7905	7912	7914	9
7905	7906	7903	7913	9
7905	7904	7901	7907	9
7904	7905	7906	7911	9
7904	7905	7912	7914	9
7904	7901	7902	7909	9
7904	7901	7907	7908	9
7911	7906	7905	7912	9
7910	7904	7905	7912	9
7907	7901	7902	7909	9
7907	7901	7904	7910	9
7909	7902	7903	7913	9
7911	7906	7903	7913	9
7930	7933	7934	7935	9
7930	7933	7934	7941	9
7930	7931	7932	7935	9
7930	7931	7932	7942	9
7932	7935	7934	7933	9
7933	7934	7935	7940	9
7933	7934	7941	7943	9
7932	7931	7930	7933	9
7933	7930	7931	7938	9
7933	7930	7936	7937	9
7931	7930	7933	7934	9
7934	7933	7930	7936	9
7931	7932	7935	7934	9
7934	7935	7932	7942	9
7935	7934	7933	7939	9
7935	7934	7941	7943	9
7935	7932	7931	7938	9
7935	7932	7942	7944	9
7932	7935	7934	7941	9
7932	7931	7930	7936	9
7931	7932	7935	7940	9
7931	7932	7942	7944	9
7931	7930	7933	7939	9
7931	7930	7936	7937	9
7940	7935	7932	7942	9
7938	7931	7932	7942	9
7936	7930	7933	7939	9
7936	7930	7931	7938	9
7939	7933	7934	7941	9
7940	7935	7934	7941	9
1772	1773	1774	1777	9
1772	1773	1774	1784	9
1772	1775	1776	1777	9
1772	1775	1776	1783	9
1773	1774	1777	1776	9
1773	1774	1777	1782	9
1773	1774	1784	1786	9
1773	1774	1784	1787	9
1773	1772	1775	1776	9
1773	1772	1775	1781	9
1773	1772	1778	1779	9
1774	1773	1772	1775	9
1774	1773	1772	1778	9
1774	1777	1776	1775	9
1774	1777	1776	1783	9
1774	1784	1787	1788	9
1777	1774	1773	1780	9
1777	1774	1784	1786	9
1777	1774	1784	1787	9
1777	1776	1775	1781	9
1777	1776	1783	1785	9
1776	1777	1774	1784	9
1776	1775	1772	1778	9
1775	1776	1777	1782	9
1775	1776	1783	1785	9
1775	1772	1773	1780	9
1775	1772	1778	1779	9
1782	1777	1776	1783	9
1781	1775	1776	1783	9
1778	1772	1773	1780	9
1778	1772	1775	1781	9
1780	1773	1774	1784	9
1782	1777	1774	1784	9
1786	1784	1787	1788	9
7945	7946	7947	7950	9
7945	7946	7947	7957	9
7945	7948	7949	7950	9
7945	7948	7949	7956	9
7949	7950	7947	7946	9
7946	7947	7950	7955	9
7946	7947	7957	7959	9
7949	7948	7945	7946	9
7946	7945	7948	7954	9
7946	7945	7951	7952	9
7948	7945	7946	7947	9
7947	7946	7945	7951	9
7948	7949	7950	7947	9
7947	7950	7949	7956	9
7950	7947	7946	7953	9
7950	7947	7957	7959	9
7950	7949	7948	7954	9
7950	7949	7956	7958	9
7949	7950	7947	7957	9
7949	7948	7945	7951	9
7948	7949	7950	7955	9
7948	7949	7956	7958	9
7948	7945	7946	7953	9
7948	7945	7951	7952	9
7955	7950	7949	7956	9
7954	7948	7949	7956	9
7951	7945	7946	7953	9
7951	7945	7948	7954	9
7953	7946	7947	7957	9
7955	7950	7947	7957	9
7974	7975	7976	7979	9
7974	7975	7976	7986	9
7974	7977	7978	7979	9
7974	7977	7978	7985	9
7978	7979	7976	7975	9
7975	7976	7979	7984	9
7975	7976	7986	7988	9
7978	7977	7974	7975	9
7975	7974	7977	7983	9
7975	7974	7980	7981	9
7977	7974	7975	7976	9
7976	7975	7974	7980	9
7977	7978	7979	7976	9
7976	7979	7978	7985	9
7979	7976	7975	7982	9
7979	7976	7986	7988	9
7979	7978	7977	7983	9
7979	7978	7985	7987	9
7978	7979	7976	7986	9
7978	7977	7974	7980	9
7977	7978	7979	7984	9
7977	7978	7985	7987	9
7977	7974	7975	7982	9
7977	7974	7980	7981	9
7984	7979	7978	7985	9
7983	7977	7978	7985	9
7980	7974	7975	7982	9
7980	7974	7977	7983	9
7982	7975	7976	7986	9
7984	7979	7976	7986	9
8003	8006	8007	8008	9
8003	8006	8007	8014	9
8003	8004	8005	8008	9
8003	8004	8005	8015	9
8005	8008	8007	8006	9
8006	8007	8008	8013	9
8006	8007	8014	8016	9
8005	8004	8003	8006	9
8006	8003	8004	8011	9
8006	8003	8009	8010	9
8004	8003	8006	8007	9
8007	8006	8003	8009	9
8004	8005	8008	8007	9
8007	8008	8005	8015	9
8008	8007	8006	8012	9
8008	8007	8014	8016	9
8008	8005	8004	8011	9
8008	8005	8015	8017	9
8005	8008	8007	8014	9
8005	8004	8003	8009	9
8004	8005	8008	8013	9
8004	8005	8015	8017	9
8004	8003	8006	8012	9
8004	8003	8009	8010	9
8013	8008	8005	8015	9
8011	8004	8005	8015	9
8009	8003	8006	8012	9
8009	8003	8004	8011	9
8012	8006	8007	8014	9
8013	8008	8007	8014	9
8018	8021	8022	8023	9
8018	8021	8022	8029	9
8018	8019	8020	8023	9
8018	8019	8020	8030	9
8020	8023	8022	8021	9
8021	8022	8023	8028	9
8021	8022	8029	8031	9
8020	8019	8018	8021	9
8021	8018	8019	8026	9
8021	8018	8024	8025	9
8019	8018	8021	8022	9
8022	8021	8018	8024	9
8019	8020	8023	8022	9
8022	8023	8020	8030	9
8023	8022	8021	8027	9
8023	8022	8029	8031	9
8023	8020	8019	8026	9
8023	8020	8030	8032	9
8020	8023	8022	8029	9
8020	8019	8018	8024	9
8019	8020	8023	8028	9
8019	8020	8030	8032	9
8019	8018	8021	8027	9
8019	8018	8024	8025	9
8028	8023	8020	8030	9
8026	8019	8020	8030	9
8024	8018	8021	8027	9
8024	8018	8019	8026	9
8027	8021	8022	8029	9
8028	8023	8022	8029	9
8047	8048	8049	8052	9
8047	8048	8049	8059	9
8047	8050	8051	8052	9
8047	8050	8051	8058	9
8048	8049	8052	8051	9
8048	8049	8052	8057	9
8048	8049	8059	8061	9
8048	8047	8050	8051	9
8048	8047	8050	8056	9
8048	8047	8053	8054	9
8049	8048	8047	8050	9
8049	8048	8047	8053	9
8049	8052	8051	8050	9
8049	8052	8051	8058	9
8052	8049	8048	8055	9
8052	8049	8059	8061	9
8052	8051	8050	8056	9
8052	8051	8058	8060	9
8051	8052	8049	8059	9
8051	8050	8047	8053	9
8050	8051	8052	8057	9
8050	8051	8058	8060	9
8050	8047	8048	8055	9
8050	8047	8053	8054	9
8057	8052	8051	8058	9
8056	8050	8051	8058	9
8053	8047	8048	8055	9
8053	8047	8050	8056	9
8055	8048	8049	8059	9
8057	8052	8049	8059	9
8076	8077	8078	8081	9
8076	8077	8078	8088	9
8076	8079	8080	8081	9
8076	8079	8080	8087	9
8077	8078	8081	8080	9
8077	8078	8081	8086	9
8077	8078	8088	8090	9
8077	8076	8079	8080	9
8077	8076	8079	8085	9
8077	8076	8082	8083	9
8078	8077	8076	8079	9
8078	8077	8076	8082	9
8078	8081	8080	8079	9
8078	8081	8080	8087	9
8081	8078	8077	8084	9
8081	8078	8088	8090	9
8081	8080	8079	8085	9
8081	8080	8087	8089	9
8080	8081	8078	8088	9
8080	8079	8076	8082	9
8079	8080	8081	8086	9
8079	8080	8087	8089	9
8079	8076	8077	8084	9
8079	8076	8082	8083	9
8086	8081	8080	8087	9
8085	8079	8080	8087	9
8082	8076	8077	8084	9
8082	8076	8079	8085	9
8084	8077	8078	8088	9
8086	8081	8078	8088	9
1807	1806	1803	1804	9
1807	1806	1803	1809	9
1807	1808	1805	1804	9
1807	1808	1805	1815	9
1805	1804	1803	1806	9
1806	1803	1804	1811	9
1806	1803	1809	1810	9
1805	1808	1807	1806	9
1806	1807	1808	1813	9
1806	1807	1814	1816	9
1808	1807	1806	1803	9
1803	1806	1807	1814	9
1808	1805	1804	1803	9
1803	1804	1805	1815	9
1804	1803	1806	1812	9
1804	1803	1809	1810	9
1804	1805	1808	1813	9
1804	1805	1815	1817	9
1804	1805	1815	1818	9
1805	1804	1803	1809	9
1805	1808	1807	1814	9
1805	1815	1818	1819	9
1808	1805	1804	1811	9
1808	1805	1815	1817	9
1808	1805	1815	1818	9
1808	1807	1806	1812	9
1808	1807	1814	1816	9
1811	1804	1805	1815	9
1813	1808	1805	1815	9
1814	1807	1806	1812	9
1814	1807	1808	1813	9
1812	1806	1803	1809	9
1811	1804	1803	1809	9
1817	1815	1818	1819	9
8091	8092	8093	8096	9
8091	8092	8093	8103	9
8091	8094	8095	8096	9
8091	8094	8095	8102	9
8092	8093	8096	8095	9
8092	8093	8096	8101	9
8092	8093	8103	8105	9
8092	8091	8094	8095	9
8092	8091	8094	8100	9
8092	8091	8097	8098	9
8093	8092	8091	8094	9
8093	8092	8091	8097	9
8093	8096	8095	8094	9
8093	8096	8095	8102	9
8096	8093	8092	8099	9
8096	8093	8103	8105	9
8096	8095	8094	8100	9
8096	8095	8102	8104	9
8095	8096	8093	8103	9
8095	8094	8091	8097	9
8094	8095	8096	8101	9
8094	8095	8102	8104	9
8094	8091	8092	8099	9
8094	8091	8097	8098	9
8101	8096	8095	8102	9
8100	8094	8095	8102	9
8097	8091	8092	8099	9
8097	8091	8094	8100	9
8099	8092	8093	8103	9
8101	8096	8093	8103	9
8120	8121	8122	8125	9
8120	8121	8122	8132	9
8120	8123	8124	8125	9
8120	8123	8124	8131	9
8121	8122	8125	8124	9
8121	8122	8125	8130	9
8121	8122	8132	8134	9
8121	8120	8123	8124	9
8121	8120	8123	8129	9
8121	8120	8126	8127	9
8122	8121	8120	8123	9
8122	8121	8120	8126	9
8122	8125	8124	8123	9
8122	8125	8124	8131	9
8125	8122	8121	8128	9
8125	8122	8132	8134	9
8125	8124	8123	8129	9
8125	8124	8131	8133	9
8124	8125	8122	8132	9
8124	8123	8120	8126	9
8123	8124	8125	8130	9
8123	8124	8131	8133	9
8123	8120	8121	8128	9
8123	8120	8126	8127	9
8130	8125	8124	8131	9
8129	8123	8124	8131	9
8126	8120	8121	8128	9
8126	8120	8123	8129	9
8128	8121	8122	8132	9
8130	8125	8122	8132	9
8149	8152	8153	8154	9
8149	8152	8153	8160	9
8149	8150	8151	8154	9
8149	8150	8151	8161	9
8152	8153	8154	8151	9
8152	8153	8154	8159	9
8152	8153	8160	8162	9
8152	8149	8150	8151	9
8152	8149	8150	8157	9
8152	8149	8155	8156	9
8153	8152	8149	8150	9
8153	8152	8149	8155	9
8153	8154	8151	8150	9
8153	8154	8151	8161	9
8154	8153	8152	8158	9
8154	8153	8160	8162	9
8154	8151	8150	8157	9
8154	8151	8161	8163	9
8151	8154	8153	8160	9
8151	8150	8149	8155	9
8150	8151	8154	8159	9
8150	8151	8161	8163	9
8150	8149	8152	8158	9
8150	8149	8155	8156	9
8159	8154	8151	8161	9
8157	8150	8151	8161	9
8155	8149	8152	8158	9
8155	8149	8150	8157	9
8158	8152	8153	8160	9
8159	8154	8153	8160	9
8178	8181	8182	8183	9
8178	8181	8182	8189	9
8178	8179	8180	8183	9
8178	8179	8180	8190	9
8181	8182	8183	8180	9
8181	8182	8183	8188	9
8181	8182	8189	8191	9
8181	8178	8179	8180	9
8181	8178	8179	8186	9
8181	8178	8184	8185	9
8182	8181	8178	8179	9
8182	8181	8178	8184	9
8182	8183	8180	8179	9
8182	8183	8180	8190	9
8183	8182	8181	8187	9
8183	8182	8189	8191	9
8183	8180	8179	8186	9
8183	8180	8190	8192	9
8180	8183	8182	8189	9
8180	8179	8178	8184	9
8179	8180	8183	8188	9
8179	8180	8190	8192	9
8179	8178	8181	8187	9
8179	8178	8184	8185	9
8188	8183	8180	8190	9
8186	8179	8180	8190	9
8184	8178	8181	8187	9
8184	8178	8179	8186	9
8187	8181	8182	8189	9
8188	8183	8182	8189	9
8193	8196	8197	8198	9
8193	8196	8197	8204	9
8193	8194	8195	8198	9
8193	8194	8195	8205	9
8195	8198	8197	8196	9
8196	8197	8198	8203	9
8196	8197	8204	8206	9
8195	8194	8193	8196	9
8196	8193	8194	8201	9
8196	8193	8199	8200	9
8194	8193	8196	8197	9
8197	8196	8193	8199	9
8194	8195	8198	8197	9
8197	8198	8195	8205	9
8198	8197	8196	8202	9
8198	8197	8204	8206	9
8198	8195	8194	8201	9
8198	8195	8205	8207	9
8195	8198	8197	8204	9
8195	8194	8193	8199	9
8194	8195	8198	8203	9
8194	8195	8205	8207	9
8194	8193	8196	8202	9
8194	8193	8199	8200	9
8203	8198	8195	8205	9
8201	8194	8195	8205	9
8199	8193	8196	8202	9
8199	8193	8194	8201	9
8202	8196	8197	8204	9
8203	8198	8197	8204	9
8208	8209	8210	8213	9
8208	8209	8210	8220	9
8208	8211	8212	8213	9
8208	8211	8212	8219	9
8209	8210	8213	8212	9
8209	8210	8213	8218	9
8209	8210	8220	8222	9
8209	8208	8211	8212	9
8209	8208	8211	8217	9
8209	8208	8214	8215	9
8210	8209	8208	8211	9
8210	8209	8208	8214	9
8210	8213	8212	8211	9
8210	8213	8212	8219	9
8213	8210	8209	8216	9
8213	8210	8220	8222	9
8213	8212	8211	8217	9
8213	8212	8219	8221	9
8212	8213	8210	8220	9
8212	8211	8208	8214	9
8211	8212	8213	8218	9
8211	8212	8219	8221	9
8211	8208	8209	8216	9
8211	8208	8214	8215	9
8218	8213	8212	8219	9
8217	8211	8212	8219	9
8214	8208	8209	8216	9
8214	8208	8211	8217	9
8216	8209	8210	8220	9
8218	8213	8210	8220	9
8239	8238	8237	8240	9
8239	8238	8237	8243	9
8239	8242	8241	8240	9
8239	8242	8241	8248	9
8238	8237	8240	8241	9
8238	8237	8240	8246	9
8238	8237	8243	8244	9
8238	8239	8242	8241	9
8238	8239	8242	8247	9
8238	8239	8249	8251	9
8237	8238	8239	8242	9
8237	8238	8239	8249	9
8237	8240	8241	8242	9
8237	8240	8241	8248	9
8240	8237	8238	8245	9
8240	8237	8243	8244	9
8240	8241	8242	8247	9
8240	8241	8248	8250	9
8241	8240	8237	8243	9
8241	8242	8239	8249	9
8242	8241	8240	8246	9
8242	8241	8248	8250	9
8242	8239	8238	8245	9
8242	8239	8249	8251	9
8246	8240	8241	8248	9
8247	8242	8241	8248	9
8245	8238	8239	8249	9
8247	8242	8239	8249	9
8243	8237	8238	8245	9
8243	8237	8240	8246	9
1850	1851	1852	1853	9
1850	1851	1852	1858	9
1850	1855	1854	1853	9
1850	1855	1854	1856	9
1851	1852	1853	1854	9
1851	1852	1853	1862	9
1851	1852	1858	1859	9
1851	1852	1858	1860	9
1851	1850	1855	1854	9
1851	1850	1855	1863	9
1851	1850	1848	1849	9
1852	1851	1850	1855	9
1852	1851	1850	1848	9
1852	1853	1854	1855	9
1852	1853	1854	1856	9
1853	1852	1851	1861	9
1853	1852	1858	1859	9
1853	1852	1858	1860	9
1853	1854	1855	1863	9
1853	1854	1856	1857	9
1854	1853	1852	1858	9
1854	1855	1850	1848	9
1855	1854	1853	1862	9
1855	1854	1856	1857	9
1855	1850	1851	1861	9
1855	1850	1848	1849	9
1862	1853	1854	1856	9
1863	1855	1854	1856	9
1848	1850	1851	1861	9
1848	1850	1855	1863	9
1861	1851	1852	1858	9
1862	1853	1852	1858	9
1864	1865	1866	1869	9
1864	1865	1866	1876	9
1864	1867	1868	1869	9
1864	1867	1868	1875	9
1865	1866	1869	1868	9
1865	1866	1869	1874	9
1865	1866	1876	1878	9
1865	1866	1876	1879	9
1865	1864	1867	1868	9
1865	1864	1867	1873	9
1865	1864	1870	1871	9
1866	1865	1864	1867	9
1866	1865	1864	1870	9
1866	1869	1868	1867	9
1866	1869	1868	1875	9
1866	1876	1879	1880	9
1869	1866	1865	1872	9
1869	1866	1876	1878	9
1869	1866	1876	1879	9
1869	1868	1867	1873	9
1869	1868	1875	1877	9
1868	1869	1866	1876	9
1868	1867	1864	1870	9
1867	1868	1869	1874	9
1867	1868	1875	1877	9
1867	1864	1865	1872	9
1867	1864	1870	1871	9
1874	1869	1868	1875	9
1873	1867	1868	1875	9
1870	1864	1865	1872	9
1870	1864	1867	1873	9
1872	1865	1866	1876	9
1874	1869	1866	1876	9
1878	1876	1879	1880	9
8252	8253	8254	8257	9
8252	8253	8254	8264	9
8252	8255	8256	8257	9
8252	8255	8256	8263	9
8253	8254	8257	8256	9
8253	8254	8257	8262	9
8253	8254	8264	8266	9
8253	8252	8255	8256	9
8253	8252	8255	8261	9
8253	8252	8258	8259	9
8254	8253	8252	8255	9
8254	8253	8252	8258	9
8254	8257	8256	8255	9
8254	8257	8256	8263	9
8257	8254	8253	8260	9
8257	8254	8264	8266	9
8257	8256	8255	8261	9
8257	8256	8263	8265	9
8256	8257	8254	8264	9
8256	8255	8252	8258	9
8255	8256	8257	8262	9
8255	8256	8263	8265	9
8255	8252	8253	8260	9
8255	8252	8258	8259	9
8262	8257	8256	8263	9
8261	8255	8256	8263	9
8258	8252	8253	8260	9
8258	8252	8255	8261	9
8260	8253	8254	8264	9
8262	8257	8254	8264	9
1897	1896	1895	1898	9
1897	1896	1895	1901	9
1897	1900	1899	1898	9
1897	1900	1899	1906	9
1897	1907	1910	1911	9
1896	1895	1898	1899	9
1896	1895	1898	1904	9
1896	1895	1901	1902	9
1896	1897	1900	1899	9
1896	1897	1900	1905	9
1896	1897	1907	1909	9
1896	1897	1907	1910	9
1895	1896	1897	1900	9
1895	1896	1897	1907	9
1895	1898	1899	1900	9
1895	1898	1899	1906	9
1898	1895	1896	1903	9
1898	1895	1901	1902	9
1898	1899	1900	1905	9
1898	1899	1906	1908	9
1899	1898	1895	1901	9
1899	1900	1897	1907	9
1900	1899	1898	1904	9
1900	1899	1906	1908	9
1900	1897	1896	1903	9
1900	1897	1907	1909	9
1900	1897	1907	1910	9
1904	1898	1899	1906	9
1905	1900	1899	1906	9
1903	1896	1897	1907	9
1905	1900	1897	1907	9
1901	1895	1896	1903	9
1901	1895	1898	1904	9
1909	1907	1910	1911	9
1926	1929	1930	1931	9
1926	1929	1930	1937	9
1926	1927	1928	1931	9
1926	1927	1928	1938	9
1928	1931	1930	1929	9
1929	1930	1931	1936	9
1929	1930	1937	1939	9
1928	1927	1926	1929	9
1929	1926	1927	1934	9
1929	1926	1932	1933	9
1927	1926	1929	1930	9
1930	1929	1926	1932	9
1927	1928	1931	1930	9
1930	1931	1928	1938	9
1931	1930	1929	1935	9
1931	1930	1937	1939	9
1931	1928	1927	1934	9
1931	1928	1938	1940	9
1931	1928	1938	1941	9
1928	1931	1930	1937	9
1928	1927	1926	1932	9
1928	1938	1941	1942	9
1927	1928	1931	1936	9
1927	1928	1938	1940	9
1927	1928	1938	1941	9
1927	1926	1929	1935	9
1927	1926	1932	1933	9
1936	1931	1928	1938	9
1934	1927	1928	1938	9
1932	1926	1929	1935	9
1932	1926	1927	1934	9
1935	1929	1930	1937	9
1936	1931	1930	1937	9
1940	1938	1941	1942	9
134	135	136	137	9
134	135	136	138	9
134	133	132	137	9
134	133	132	130	9
135	136	137	132	9
135	136	137	146	9
135	136	138	139	9
135	134	133	132	9
135	134	133	144	9
135	134	140	141	9
135	134	140	142	9
136	135	134	133	9
136	135	134	140	9
136	137	132	133	9
136	137	132	130	9
137	136	135	145	9
137	136	138	139	9
137	132	133	144	9
137	132	130	131	9
137	132	130	129	9
132	137	136	138	9
132	133	134	140	9
132	130	129	143	9
133	132	137	146	9
133	132	130	131	9
133	132	130	129	9
133	134	135	145	9
133	134	140	141	9
133	134	140	142	9
146	137	132	130	9
144	133	132	130	9
145	135	134	140	9
144	133	134	140	9
138	136	135	145	9
138	136	137	146	9
131	130	129	143	9
166	167	168	169	9
166	167	168	170	9
166	165	164	169	9
166	165	164	162	9
167	168	169	164	9
167	168	169	178	9
167	168	170	171	9
167	166	165	164	9
167	166	165	176	9
167	166	172	173	9
167	166	172	174	9
168	167	166	165	9
168	167	166	172	9
168	169	164	165	9
168	169	164	162	9
169	168	167	177	9
169	168	170	171	9
169	164	165	176	9
169	164	162	163	9
169	164	162	161	9
164	169	168	170	9
164	165	166	172	9
164	162	161	175	9
165	164	169	178	9
165	164	162	163	9
165	164	162	161	9
165	166	167	177	9
165	166	172	173	9
165	166	172	174	9
178	169	164	162	9
176	165	164	162	9
177	167	166	172	9
176	165	166	172	9
170	168	167	177	9
170	168	169	178	9
163	162	161	175	9
1958	1959	1960	1963	9
1958	1959	1960	1970	9
1958	1961	1962	1963	9
1958	1961	1962	1969	9
1959	1960	1963	1962	9
1959	1960	1963	1968	9
1959	1960	1970	1972	9
1959	1960	1970	1973	9
1959	1958	1961	1962	9
1959	1958	1961	1967	9
1959	1958	1964	1965	9
1960	1959	1958	1961	9
1960	1959	1958	1964	9
1960	1963	1962	1961	9
1960	1963	1962	1969	9
1960	1970	1973	1974	9
1963	1960	1959	1966	9
1963	1960	1970	1972	9
1963	1960	1970	1973	9
1963	1962	1961	1967	9
1963	1962	1969	1971	9
1962	1963	1960	1970	9
1962	1961	1958	1964	9
1961	1962	1963	1968	9
1961	1962	1969	1971	9
1961	1958	1959	1966	9
1961	1958	1964	1965	9
1968	1963	1962	1969	9
1967	1961	1962	1969	9
1964	1958	1959	1966	9
1964	1958	1961	1967	9
1966	1959	1960	1970	9
1968	1963	1960	1970	9
1972	1970	1973	1974	9
1991	1990	1989	1992	9
1991	1990	1989	1995	9
1991	1994	1993	1992	9
1991	1994	1993	2000	9
1991	2001	2004	2005	9
1990	1989	1992	1993	9
1990	1989	1992	1998	9
1990	1989	1995	1996	9
1990	1991	1994	1993	9
1990	1991	1994	1999	9
1990	1991	2001	2003	9
1990	1991	2001	2004	9
1989	1990	1991	1994	9
1989	1990	1991	2001	9
1989	1992	1993	1994	9
1989	1992	1993	2000	9
1992	1989	1990	1997	9
1992	1989	1995	1996	9
1992	1993	1994	1999	9
1992	1993	2000	2002	9
1993	1992	1989	1995	9
1993	1994	1991	2001	9
1994	1993	1992	1998	9
1994	1993	2000	2002	9
1994	1991	1990	1997	9
1994	1991	2001	2003	9
1994	1991	2001	2004	9
1998	1992	1993	2000	9
1999	1994	1993	2000	9
1997	1990	1991	2001	9
1999	1994	1991	2001	9
1995	1989	1990	1997	9
1995	1989	1992	1998	9
2003	2001	2004	2005	9
8267	8268	8269	8272	9
8267	8268	8269	8279	9
8267	8270	8271	8272	9
8267	8270	8271	8278	9
8268	8269	8272	8271	9
8268	8269	8272	8277	9
8268	8269	8279	8281	9
8268	8267	8270	8271	9
8268	8267	8270	8276	9
8268	8267	8273	8274	9
8269	8268	8267	8270	9
8269	8268	8267	8273	9
8269	8272	8271	8270	9
8269	8272	8271	8278	9
8272	8269	8268	8275	9
8272	8269	8279	8281	9
8272	8271	8270	8276	9
8272	8271	8278	8280	9
8271	8272	8269	8279	9
8271	8270	8267	8273	9
8270	8271	8272	8277	9
8270	8271	8278	8280	9
8270	8267	8268	8275	9
8270	8267	8273	8274	9
8277	8272	8271	8278	9
8276	8270	8271	8278	9
8273	8267	8268	8275	9
8273	8267	8270	8276	9
8275	8268	8269	8279	9
8277	8272	8269	8279	9
8296	8297	8298	8301	9
8296	8297	8298	8308	9
8296	8299	8300	8301	9
8296	8299	8300	8307	9
8297	8298	8301	8300	9
8297	8298	8301	8306	9
8297	8298	8308	8310	9
8297	8296	8299	8300	9
8297	8296	8299	8305	9
8297	8296	8302	8303	9
8298	8297	8296	8299	9
8298	8297	8296	8302	9
8298	8301	8300	8299	9
8298	8301	8300	8307	9
8301	8298	8297	8304	9
8301	8298	8308	8310	9
8301	8300	8299	8305	9
8301	8300	8307	8309	9
8300	8301	8298	8308	9
8300	8299	8296	8302	9
8299	8300	8301	8306	9
8299	8300	8307	8309	9
8299	8296	8297	8304	9
8299	8296	8302	8303	9
8306	8301	8300	8307	9
8305	8299	8300	8307	9
8302	8296	8297	8304	9
8302	8296	8299	8305	9
8304	8297	8298	8308	9
8306	8301	8298	8308	9
8311	8312	8313	8316	9
8311	8312	8313	8323	9
8311	8314	8315	8316	9
8311	8314	8315	8322	9
8315	8316	8313	8312	9
8312	8313	8316	8321	9
8312	8313	8323	8325	9
8315	8314	8311	8312	9
8312	8311	8314	8320	9
8312	8311	8317	8318	9
8314	8311	8312	8313	9
8313	8312	8311	8317	9
8314	8315	8316	8313	9
8313	8316	8315	8322	9
8316	8313	8312	8319	9
8316	8313	8323	8325	9
8316	8315	8314	8320	9
8316	8315	8322	8324	9
8315	8316	8313	8323	9
8315	8314	8311	8317	9
8314	8315	8316	8321	9
8314	8315	8322	8324	9
8314	8311	8312	8319	9
8314	8311	8317	8318	9
8321	8316	8315	8322	9
8320	8314	8315	8322	9
8317	8311	8312	8319	9
8317	8311	8314	8320	9
8319	8312	8313	8323	9
8321	8316	8313	8323	9
8340	8341	8342	8345	9
8340	8341	8342	8352	9
8340	8343	8344	8345	9
8340	8343	8344	8351	9
8344	8345	8342	8341	9
8341	8342	8345	8350	9
8341	8342	8352	8354	9
8344	8343	8340	8341	9
8341	8340	8343	8349	9
8341	8340	8346	8347	9
8343	8340	8341	8342	9
8342	8341	8340	8346	9
8343	8344	8345	8342	9
8342	8345	8344	8351	9
8345	8342	8341	8348	9
8345	8342	8352	8354	9
8345	8344	8343	8349	9
8345	8344	8351	8353	9
8344	8345	8342	8352	9
8344	8343	8340	8346	9
8343	8344	8345	8350	9
8343	8344	8351	8353	9
8343	8340	8341	8348	9
8343	8340	8346	8347	9
8350	8345	8344	8351	9
8349	8343	8344	8351	9
8346	8340	8341	8348	9
8346	8340	8343	8349	9
8348	8341	8342	8352	9
8350	8345	8342	8352	9
8355	8358	8359	8360	9
8355	8358	8359	8366	9
8355	8356	8357	8360	9
8355	8356	8357	8367	9
8357	8360	8359	8358	9
8358	8359	8360	8365	9
8358	8359	8366	8368	9
8357	8356	8355	8358	9
8358	8355	8356	8363	9
8358	8355	8361	8362	9
8356	8355	8358	8359	9
8359	8358	8355	8361	9
8356	8357	8360	8359	9
8359	8360	8357	8367	9
8360	8359	8358	8364	9
8360	8359	8366	8368	9
8360	8357	8356	8363	9
8360	8357	8367	8369	9
8357	8360	8359	8366	9
8357	8356	8355	8361	9
8356	8357	8360	8365	9
8356	8357	8367	8369	9
8356	8355	8358	8364	9
8356	8355	8361	8362	9
8365	8360	8357	8367	9
8363	8356	8357	8367	9
8361	8355	8358	8364	9
8361	8355	8356	8363	9
8364	8358	8359	8366	9
8365	8360	8359	8366	9
8370	8373	8374	8375	9
8370	8373	8374	8381	9
8370	8371	8372	8375	9
8370	8371	8372	8382	9
8372	8375	8374	8373	9
8373	8374	8375	8380	9
8373	8374	8381	8383	9
8372	8371	8370	8373	9
8373	8370	8371	8378	9
8373	8370	8376	8377	9
8371	8370	8373	8374	9
8374	8373	8370	8376	9
8371	8372	8375	8374	9
8374	8375	8372	8382	9
8375	8374	8373	8379	9
8375	8374	8381	8383	9
8375	8372	8371	8378	9
8375	8372	8382	8384	9
8372	8375	8374	8381	9
8372	8371	8370	8376	9
8371	8372	8375	8380	9
8371	8372	8382	8384	9
8371	8370	8373	8379	9
8371	8370	8376	8377	9
8380	8375	8372	8382	9
8378	8371	8372	8382	9
8376	8370	8373	8379	9
8376	8370	8371	8378	9
8379	8373	8374	8381	9
8380	8375	8374	8381	9
8399	8400	8401	8404	9
8399	8400	8401	8411	9
8399	8402	8403	8404	9
8399	8402	8403	8410	9
8400	8401	8404	8403	9
8400	8401	8404	8409	9
8400	8401	8411	8413	9
8400	8399	8402	8403	9
8400	8399	8402	8408	9
8400	8399	8405	8406	9
8401	8400	8399	8402	9
8401	8400	8399	8405	9
8401	8404	8403	8402	9
8401	8404	8403	8410	9
8404	8401	8400	8407	9
8404	8401	8411	8413	9
8404	8403	8402	8408	9
8404	8403	8410	8412	9
8403	8404	8401	8411	9
8403	8402	8399	8405	9
8402	8403	8404	8409	9
8402	8403	8410	8412	9
8402	8399	8400	8407	9
8402	8399	8405	8406	9
8409	8404	8403	8410	9
8408	8402	8403	8410	9
8405	8399	8400	8407	9
8405	8399	8402	8408	9
8407	8400	8401	8411	9
8409	8404	8401	8411	9
8414	8415	8416	8419	9
8414	8415	8416	8426	9
8414	8417	8418	8419	9
8414	8417	8418	8425	9
8415	8416	8419	8418	9
8415	8416	8419	8424	9
8415	8416	8426	8428	9
8415	8414	8417	8418	9
8415	8414	8417	8423	9
8415	8414	8420	8421	9
8416	8415	8414	8417	9
8416	8415	8414	8420	9
8416	8419	8418	8417	9
8416	8419	8418	8425	9
8419	8416	8415	8422	9
8419	8416	8426	8428	9
8419	8418	8417	8423	9
8419	8418	8425	8427	9
8418	8419	8416	8426	9
8418	8417	8414	8420	9
8417	8418	8419	8424	9
8417	8418	8425	8427	9
8417	8414	8415	8422	9
8417	8414	8420	8421	9
8424	8419	8418	8425	9
8423	8417	8418	8425	9
8420	8414	8415	8422	9
8420	8414	8417	8423	9
8422	8415	8416	8426	9
8424	8419	8416	8426	9
2022	2021	2020	2023	9
2022	2021	2020	2026	9
2022	2025	2024	2023	9
2022	2025	2024	2031	9
2022	2032	2035	2036	9
2021	2020	2023	2024	9
2021	2020	2023	2029	9
2021	2020	2026	2027	9
2021	2022	2025	2024	9
2021	2022	2025	2030	9
2021	2022	2032	2034	9
2021	2022	2032	2035	9
2020	2021	2022	2025	9
2020	2021	2022	2032	9
2020	2023	2024	2025	9
2020	2023	2024	2031	9
2023	2020	2021	2028	9
2023	2020	2026	2027	9
2023	2024	2025	2030	9
2023	2024	2031	2033	9
2024	2023	2020	2026	9
2024	2025	2022	2032	9
2025	2024	2023	2029	9
2025	2024	2031	2033	9
2025	2022	2021	2028	9
2025	2022	2032	2034	9
2025	2022	2032	2035	9
2029	2023	2024	2031	9
2030	2025	2024	2031	9
2028	2021	2022	2032	9
2030	2025	2022	2032	9
2026	2020	2021	2028	9
2026	2020	2023	2029	9
2034	2032	2035	2036	9
8443	8444	8445	8448	9
8443	8444	8445	8455	9
8443	8446	8447	8448	9
8443	8446	8447	8454	9
8444	8445	8448	8447	9
8444	8445	8448	8453	9
8444	8445	8455	8457	9
8444	8443	8446	8447	9
8444	8443	8446	8452	9
8444	8443	8449	8450	9
8445	8444	8443	8446	9
8445	8444	8443	8449	9
8445	8448	8447	8446	9
8445	8448	8447	8454	9
8448	8445	8444	8451	9
8448	8445	8455	8457	9
8448	8447	8446	8452	9
8448	8447	8454	8456	9
8447	8448	8445	8455	9
8447	8446	8443	8449	9
8446	8447	8448	8453	9
8446	8447	8454	8456	9
8446	8443	8444	8451	9
8446	8443	8449	8450	9
8453	8448	8447	8454	9
8452	8446	8447	8454	9
8449	8443	8444	8451	9
8449	8443	8446	8452	9
8451	8444	8445	8455	9
8453	8448	8445	8455	9
2069	2068	2067	2072	9
2069	2068	2067	2065	9
2069	2070	2071	2072	9
2069	2070	2071	2073	9
2068	2067	2072	2071	9
2068	2067	2072	2080	9
2068	2067	2065	2066	9
2068	2069	2070	2071	9
2068	2069	2070	2079	9
2068	2069	2075	2076	9
2068	2069	2075	2077	9
2067	2068	2069	2070	9
2067	2068	2069	2075	9
2067	2072	2071	2070	9
2067	2072	2071	2073	9
2072	2067	2068	2078	9
2072	2067	2065	2066	9
2072	2071	2070	2079	9
2072	2071	2073	2074	9
2071	2072	2067	2065	9
2071	2070	2069	2075	9
2070	2071	2072	2080	9
2070	2071	2073	2074	9
2070	2069	2068	2078	9
2070	2069	2075	2076	9
2070	2069	2075	2077	9
2080	2072	2071	2073	9
2079	2070	2071	2073	9
2078	2068	2069	2075	9
2079	2070	2069	2075	9
2065	2067	2068	2078	9
2065	2067	2072	2080	9
2083	2082	2081	2084	9
2083	2082	2081	2087	9
2083	2086	2085	2084	9
2083	2086	2085	2092	9
2083	2093	2096	2097	9
2082	2081	2084	2085	9
2082	2081	2084	2090	9
2082	2081	2087	2088	9
2082	2083	2086	2085	9
2082	2083	2086	2091	9
2082	2083	2093	2095	9
2082	2083	2093	2096	9
2081	2082	2083	2086	9
2081	2082	2083	2093	9
2081	2084	2085	2086	9
2081	2084	2085	2092	9
2084	2081	2082	2089	9
2084	2081	2087	2088	9
2084	2085	2086	2091	9
2084	2085	2092	2094	9
2085	2084	2081	2087	9
2085	2086	2083	2093	9
2086	2085	2084	2090	9
2086	2085	2092	2094	9
2086	2083	2082	2089	9
2086	2083	2093	2095	9
2086	2083	2093	2096	9
2090	2084	2085	2092	9
2091	2086	2085	2092	9
2089	2082	2083	2093	9
2091	2086	2083	2093	9
2087	2081	2082	2089	9
2087	2081	2084	2090	9
2095	2093	2096	2097	9
199	198	197	196	9
196	197	198	204	9
199	200	201	196	9
196	201	200	202	9
196	194	193	207	9
200	199	198	197	9
197	198	199	209	9
197	198	204	205	9
197	198	204	206	9
200	201	196	197	9
197	196	201	210	9
197	196	194	195	9
197	196	194	193	9
198	197	196	201	9
198	197	196	194	9
198	199	200	201	9
198	199	200	202	9
199	198	197	208	9
199	198	204	205	9
199	198	204	206	9
199	200	201	210	9
199	200	202	203	9
200	199	198	204	9
200	201	196	194	9
201	200	199	209	9
201	200	202	203	9
201	196	197	208	9
201	196	194	195	9
201	196	194	193	9
202	200	199	209	9
202	200	201	210	9
208	197	196	194	9
210	201	196	194	9
208	197	198	204	9
209	199	198	204	9
195	194	193	207	9
8472	8475	8476	8477	9
8472	8475	8476	8483	9
8472	8473	8474	8477	9
8472	8473	8474	8484	9
8474	8477	8476	8475	9
8475	8476	8477	8482	9
8475	8476	8483	8485	9
8474	8473	8472	8475	9
8475	8472	8473	8480	9
8475	8472	8478	8479	9
8473	8472	8475	8476	9
8476	8475	8472	8478	9
8473	8474	8477	8476	9
8476	8477	8474	8484	9
8477	8476	8475	8481	9
8477	8476	8483	8485	9
8477	8474	8473	8480	9
8477	8474	8484	8486	9
8474	8477	8476	8483	9
8474	8473	8472	8478	9
8473	8474	8477	8482	9
8473	8474	8484	8486	9
8473	8472	8475	8481	9
8473	8472	8478	8479	9
8482	8477	8474	8484	9
8480	8473	8474	8484	9
8478	8472	8475	8481	9
8478	8472	8473	8480	9
8481	8475	8476	8483	9
8482	8477	8476	8483	9
8487	8488	8489	8492	9
8487	8488	8489	8499	9
8487	8490	8491	8492	9
8487	8490	8491	8498	9
8491	8492	8489	8488	9
8488	8489	8492	8497	9
8488	8489	8499	8501	9
8491	8490	8487	8488	9
8488	8487	8490	8496	9
8488	8487	8493	8494	9
8490	8487	8488	8489	9
8489	8488	8487	8493	9
8490	8491	8492	8489	9
8489	8492	8491	8498	9
8492	8489	8488	8495	9
8492	8489	8499	8501	9
8492	8491	8490	8496	9
8492	8491	8498	8500	9
8491	8492	8489	8499	9
8491	8490	8487	8493	9
8490	8491	8492	8497	9
8490	8491	8498	8500	9
8490	8487	8488	8495	9
8490	8487	8493	8494	9
8497	8492	8491	8498	9
8496	8490	8491	8498	9
8493	8487	8488	8495	9
8493	8487	8490	8496	9
8495	8488	8489	8499	9
8497	8492	8489	8499	9
8516	8517	8518	8521	9
8516	8517	8518	8528	9
8516	8519	8520	8521	9
8516	8519	8520	8527	9
8520	8521	8518	8517	9
8517	8518	8521	8526	9
8517	8518	8528	8530	9
8520	8519	8516	8517	9
8517	8516	8519	8525	9
8517	8516	8522	8523	9
8519	8516	8517	8518	9
8518	8517	8516	8522	9
8519	8520	8521	8518	9
8518	8521	8520	8527	9
8521	8518	8517	8524	9
8521	8518	8528	8530	9
8521	8520	8519	8525	9
8521	8520	8527	8529	9
8520	8521	8518	8528	9
8520	8519	8516	8522	9
8519	8520	8521	8526	9
8519	8520	8527	8529	9
8519	8516	8517	8524	9
8519	8516	8522	8523	9
8526	8521	8520	8527	9
8525	8519	8520	8527	9
8522	8516	8517	8524	9
8522	8516	8519	8525	9
8524	8517	8518	8528	9
8526	8521	8518	8528	9
8545	8546	8547	8550	9
8545	8546	8547	8557	9
8545	8548	8549	8550	9
8545	8548	8549	8556	9
8546	8547	8550	8549	9
8546	8547	8550	8555	9
8546	8547	8557	8559	9
8546	8545	8548	8549	9
8546	8545	8548	8554	9
8546	8545	8551	8552	9
8547	8546	8545	8548	9
8547	8546	8545	8551	9
8547	8550	8549	8548	9
8547	8550	8549	8556	9
8550	8547	8546	8553	9
8550	8547	8557	8559	9
8550	8549	8548	8554	9
8550	8549	8556	8558	9
8549	8550	8547	8557	9
8549	8548	8545	8551	9
8548	8549	8550	8555	9
8548	8549	8556	8558	9
8548	8545	8546	8553	9
8548	8545	8551	8552	9
8555	8550	8549	8556	9
8554	8548	8549	8556	9
8551	8545	8546	8553	9
8551	8545	8548	8554	9
8553	8546	8547	8557	9
8555	8550	8547	8557	9
2112	2113	2114	2117	9
2112	2113	2114	2124	9
2112	2115	2116	2117	9
2112	2115	2116	2123	9
2113	2114	2117	2116	9
2113	2114	2117	2122	9
2113	2114	2124	2126	9
2113	2114	2124	2127	9
2113	2112	2115	2116	9
2113	2112	2115	2121	9
2113	2112	2118	2119	9
2114	2113	2112	2115	9
2114	2113	2112	2118	9
2114	2117	2116	2115	9
2114	2117	2116	2123	9
2114	2124	2127	2128	9
2117	2114	2113	2120	9
2117	2114	2124	2126	9
2117	2114	2124	2127	9
2117	2116	2115	2121	9
2117	2116	2123	2125	9
2116	2117	2114	2124	9
2116	2115	2112	2118	9
2115	2116	2117	2122	9
2115	2116	2123	2125	9
2115	2112	2113	2120	9
2115	2112	2118	2119	9
2122	2117	2116	2123	9
2121	2115	2116	2123	9
2118	2112	2113	2120	9
2118	2112	2115	2121	9
2120	2113	2114	2124	9
2122	2117	2114	2124	9
2126	2124	2127	2128	9
8562	8561	8560	8563	9
8562	8561	8560	8566	9
8562	8565	8564	8563	9
8562	8565	8564	8571	9
8561	8560	8563	8564	9
8561	8560	8563	8569	9
8561	8560	8566	8567	9
8561	8562	8565	8564	9
8561	8562	8565	8570	9
8561	8562	8572	8574	9
8560	8561	8562	8565	9
8560	8561	8562	8572	9
8560	8563	8564	8565	9
8560	8563	8564	8571	9
8563	8560	8561	8568	9
8563	8560	8566	8567	9
8563	8564	8565	8570	9
8563	8564	8571	8573	9
8564	8563	8560	8566	9
8564	8565	8562	8572	9
8565	8564	8563	8569	9
8565	8564	8571	8573	9
8565	8562	8561	8568	9
8565	8562	8572	8574	9
8569	8563	8564	8571	9
8570	8565	8564	8571	9
8568	8561	8562	8572	9
8570	8565	8562	8572	9
8566	8560	8561	8568	9
8566	8560	8563	8569	9
8589	8590	8591	8594	9
8589	8590	8591	8601	9
8589	8592	8593	8594	9
8589	8592	8593	8600	9
8590	8591	8594	8593	9
8590	8591	8594	8599	9
8590	8591	8601	8603	9
8590	8589	8592	8593	9
8590	8589	8592	8598	9
8590	8589	8595	8596	9
8591	8590	8589	8592	9
8591	8590	8589	8595	9
8591	8594	8593	8592	9
8591	8594	8593	8600	9
8594	8591	8590	8597	9
8594	8591	8601	8603	9
8594	8593	8592	8598	9
8594	8593	8600	8602	9
8593	8594	8591	8601	9
8593	8592	8589	8595	9
8592	8593	8594	8599	9
8592	8593	8600	8602	9
8592	8589	8590	8597	9
8592	8589	8595	8596	9
8599	8594	8593	8600	9
8598	8592	8593	8600	9
8595	8589	8590	8597	9
8595	8589	8592	8598	9
8597	8590	8591	8601	9
8599	8594	8591	8601	9
8618	8621	8622	8623	9
8618	8621	8622	8629	9
8618	8619	8620	8623	9
8618	8619	8620	8630	9
8620	8623	8622	8621	9
8621	8622	8623	8628	9
8621	8622	8629	8631	9
8620	8619	8618	8621	9
8621	8618	8619	8626	9
8621	8618	8624	8625	9
8619	8618	8621	8622	9
8622	8621	8618	8624	9
8619	8620	8623	8622	9
8622	8623	8620	8630	9
8623	8622	8621	8627	9
8623	8622	8629	8631	9
8623	8620	8619	8626	9
8623	8620	8630	8632	9
8620	8623	8622	8629	9
8620	8619	8618	8624	9
8619	8620	8623	8628	9
8619	8620	8630	8632	9
8619	8618	8621	8627	9
8619	8618	8624	8625	9
8628	8623	8620	8630	9
8626	8619	8620	8630	9
8624	8618	8621	8627	9
8624	8618	8619	8626	9
8627	8621	8622	8629	9
8628	8623	8622	8629	9
8633	8634	8635	8638	9
8633	8634	8635	8645	9
8633	8636	8637	8638	9
8633	8636	8637	8644	9
8634	8635	8638	8637	9
8634	8635	8638	8643	9
8634	8635	8645	8647	9
8634	8633	8636	8637	9
8634	8633	8636	8642	9
8634	8633	8639	8640	9
8635	8634	8633	8636	9
8635	8634	8633	8639	9
8635	8638	8637	8636	9
8635	8638	8637	8644	9
8638	8635	8634	8641	9
8638	8635	8645	8647	9
8638	8637	8636	8642	9
8638	8637	8644	8646	9
8637	8638	8635	8645	9
8637	8636	8633	8639	9
8636	8637	8638	8643	9
8636	8637	8644	8646	9
8636	8633	8634	8641	9
8636	8633	8639	8640	9
8643	8638	8637	8644	9
8642	8636	8637	8644	9
8639	8633	8634	8641	9
8639	8633	8636	8642	9
8641	8634	8635	8645	9
8643	8638	8635	8645	9
8662	8663	8664	8667	9
8662	8663	8664	8674	9
8662	8665	8666	8667	9
8662	8665	8666	8673	9
8663	8664	8667	8666	9
8663	8664	8667	8672	9
8663	8664	8674	8676	9
8663	8662	8665	8666	9
8663	8662	8665	8671	9
8663	8662	8668	8669	9
8664	8663	8662	8665	9
8664	8663	8662	8668	9
8664	8667	8666	8665	9
8664	8667	8666	8673	9
8667	8664	8663	8670	9
8667	8664	8674	8676	9
8667	8666	8665	8671	9
8667	8666	8673	8675	9
8666	8667	8664	8674	9
8666	8665	8662	8668	9
8665	8666	8667	8672	9
8665	8666	8673	8675	9
8665	8662	8663	8670	9
8665	8662	8668	8669	9
8672	8667	8666	8673	9
8671	8665	8666	8673	9
8668	8662	8663	8670	9
8668	8662	8665	8671	9
8670	8663	8664	8674	9
8672	8667	8664	8674	9
8691	8694	8695	8696	9
8691	8694	8695	8702	9
8691	8692	8693	8696	9
8691	8692	8693	8703	9
8694	8695	8696	8693	9
8694	8695	8696	8701	9
8694	8695	8702	8704	9
8694	8691	8692	8693	9
8694	8691	8692	8699	9
8694	8691	8697	8698	9
8695	8694	8691	8692	9
8695	8694	8691	8697	9
8695	8696	8693	8692	9
8695	8696	8693	8703	9
8696	8695	8694	8700	9
8696	8695	8702	8704	9
8696	8693	8692	8699	9
8696	8693	8703	8705	9
8693	8696	8695	8702	9
8693	8692	8691	8697	9
8692	8693	8696	8701	9
8692	8693	8703	8705	9
8692	8691	8694	8700	9
8692	8691	8697	8698	9
8701	8696	8693	8703	9
8699	8692	8693	8703	9
8697	8691	8694	8700	9
8697	8691	8692	8699	9
8700	8694	8695	8702	9
8701	8696	8695	8702	9
8720	8723	8724	8725	9
8720	8723	8724	8731	9
8720	8721	8722	8725	9
8720	8721	8722	8732	9
8723	8724	8725	8722	9
8723	8724	8725	8730	9
8723	8724	8731	8733	9
8723	8720	8721	8722	9
8723	8720	8721	8728	9
8723	8720	8726	8727	9
8724	8723	8720	8721	9
8724	8723	8720	8726	9
8724	8725	8722	8721	9
8724	8725	8722	8732	9
8725	8724	8723	8729	9
8725	8724	8731	8733	9
8725	8722	8721	8728	9
8725	8722	8732	8734	9
8722	8725	8724	8731	9
8722	8721	8720	8726	9
8721	8722	8725	8730	9
8721	8722	8732	8734	9
8721	8720	8723	8729	9
8721	8720	8726	8727	9
8730	8725	8722	8732	9
8728	8721	8722	8732	9
8726	8720	8723	8729	9
8726	8720	8721	8728	9
8729	8723	8724	8731	9
8730	8725	8724	8731	9
8735	8738	8739	8740	9
8735	8738	8739	8746	9
8735	8736	8737	8740	9
8735	8736	8737	8747	9
8737	8740	8739	8738	9
8738	8739	8740	8745	9
8738	8739	8746	8748	9
8737	8736	8735	8738	9
8738	8735	8736	8743	9
8738	8735	8741	8742	9
8736	8735	8738	8739	9
8739	8738	8735	8741	9
8736	8737	8740	8739	9
8739	8740	8737	8747	9
8740	8739	8738	8744	9
8740	8739	8746	8748	9
8740	8737	8736	8743	9
8740	8737	8747	8749	9
8737	8740	8739	8746	9
8737	8736	8735	8741	9
8736	8737	8740	8745	9
8736	8737	8747	8749	9
8736	8735	8738	8744	9
8736	8735	8741	8742	9
8745	8740	8737	8747	9
8743	8736	8737	8747	9
8741	8735	8738	8744	9
8741	8735	8736	8743	9
8744	8738	8739	8746	9
8745	8740	8739	8746	9
8750	8753	8754	8755	9
8750	8753	8754	8761	9
8750	8751	8752	8755	9
8750	8751	8752	8762	9
8752	8755	8754	8753	9
8753	8754	8755	8760	9
8753	8754	8761	8763	9
8752	8751	8750	8753	9
8753	8750	8751	8758	9
8753	8750	8756	8757	9
8751	8750	8753	8754	9
8754	8753	8750	8756	9
8751	8752	8755	8754	9
8754	8755	8752	8762	9
8755	8754	8753	8759	9
8755	8754	8761	8763	9
8755	8752	8751	8758	9
8755	8752	8762	8764	9
8752	8755	8754	8761	9
8752	8751	8750	8756	9
8751	8752	8755	8760	9
8751	8752	8762	8764	9
8751	8750	8753	8759	9
8751	8750	8756	8757	9
8760	8755	8752	8762	9
8758	8751	8752	8762	9
8756	8750	8753	8759	9
8756	8750	8751	8758	9
8759	8753	8754	8761	9
8760	8755	8754	8761	9
8765	8768	8769	8770	9
8765	8768	8769	8776	9
8765	8766	8767	8770	9
8765	8766	8767	8777	9
8767	8770	8769	8768	9
8768	8769	8770	8775	9
8768	8769	8776	8778	9
8767	8766	8765	8768	9
8768	8765	8766	8773	9
8768	8765	8771	8772	9
8766	8765	8768	8769	9
8769	8768	8765	8771	9
8766	8767	8770	8769	9
8769	8770	8767	8777	9
8770	8769	8768	8774	9
8770	8769	8776	8778	9
8770	8767	8766	8773	9
8770	8767	8777	8779	9
8767	8770	8769	8776	9
8767	8766	8765	8771	9
8766	8767	8770	8775	9
8766	8767	8777	8779	9
8766	8765	8768	8774	9
8766	8765	8771	8772	9
8775	8770	8767	8777	9
8773	8766	8767	8777	9
8771	8765	8768	8774	9
8771	8765	8766	8773	9
8774	8768	8769	8776	9
8775	8770	8769	8776	9
8794	8795	8796	8799	9
8794	8795	8796	8806	9
8794	8797	8798	8799	9
8794	8797	8798	8805	9
8795	8796	8799	8798	9
8795	8796	8799	8804	9
8795	8796	8806	8808	9
8795	8794	8797	8798	9
8795	8794	8797	8803	9
8795	8794	8800	8801	9
8796	8795	8794	8797	9
8796	8795	8794	8800	9
8796	8799	8798	8797	9
8796	8799	8798	8805	9
8799	8796	8795	8802	9
8799	8796	8806	8808	9
8799	8798	8797	8803	9
8799	8798	8805	8807	9
8798	8799	8796	8806	9
8798	8797	8794	8800	9
8797	8798	8799	8804	9
8797	8798	8805	8807	9
8797	8794	8795	8802	9
8797	8794	8800	8801	9
8804	8799	8798	8805	9
8803	8797	8798	8805	9
8800	8794	8795	8802	9
8800	8794	8797	8803	9
8802	8795	8796	8806	9
8804	8799	8796	8806	9
8823	8824	8825	8828	9
8823	8824	8825	8835	9
8823	8826	8827	8828	9
8823	8826	8827	8834	9
8824	8825	8828	8827	9
8824	8825	8828	8833	9
8824	8825	8835	8837	9
8824	8823	8826	8827	9
8824	8823	8826	8832	9
8824	8823	8829	8830	9
8825	8824	8823	8826	9
8825	8824	8823	8829	9
8825	8828	8827	8826	9
8825	8828	8827	8834	9
8828	8825	8824	8831	9
8828	8825	8835	8837	9
8828	8827	8826	8832	9
8828	8827	8834	8836	9
8827	8828	8825	8835	9
8827	8826	8823	8829	9
8826	8827	8828	8833	9
8826	8827	8834	8836	9
8826	8823	8824	8831	9
8826	8823	8829	8830	9
8833	8828	8827	8834	9
8832	8826	8827	8834	9
8829	8823	8824	8831	9
8829	8823	8826	8832	9
8831	8824	8825	8835	9
8833	8828	8825	8835	9
8854	8853	8852	8855	9
8854	8853	8852	8858	9
8854	8857	8856	8855	9
8854	8857	8856	8863	9
8853	8852	8855	8856	9
8853	8852	8855	8861	9
8853	8852	8858	8859	9
8853	8854	8857	8856	9
8853	8854	8857	8862	9
8853	8854	8864	8866	9
8852	8853	8854	8857	9
8852	8853	8854	8864	9
8852	8855	8856	8857	9
8852	8855	8856	8863	9
8855	8852	8853	8860	9
8855	8852	8858	8859	9
8855	8856	8857	8862	9
8855	8856	8863	8865	9
8856	8855	8852	8858	9
8856	8857	8854	8864	9
8857	8856	8855	8861	9
8857	8856	8863	8865	9
8857	8854	8853	8860	9
8857	8854	8864	8866	9
8861	8855	8856	8863	9
8862	8857	8856	8863	9
8864	8854	8853	8860	9
8864	8854	8857	8862	9
8860	8853	8852	8858	9
8861	8855	8852	8858	9
8881	8884	8885	8886	9
8881	8884	8885	8892	9
8881	8882	8883	8886	9
8881	8882	8883	8893	9
8884	8885	8886	8883	9
8884	8885	8886	8891	9
8884	8885	8892	8894	9
8884	8881	8882	8883	9
8884	8881	8882	8889	9
8884	8881	8887	8888	9
8885	8884	8881	8882	9
8885	8884	8881	8887	9
8885	8886	8883	8882	9
8885	8886	8883	8893	9
8886	8885	8884	8890	9
8886	8885	8892	8894	9
8886	8883	8882	8889	9
8886	8883	8893	8895	9
8883	8886	8885	8892	9
8883	8882	8881	8887	9
8882	8883	8886	8891	9
8882	8883	8893	8895	9
8882	8881	8884	8890	9
8882	8881	8887	8888	9
8891	8886	8883	8893	9
8889	8882	8883	8893	9
8887	8881	8884	8890	9
8887	8881	8882	8889	9
8890	8884	8885	8892	9
8891	8886	8885	8892	9
8896	8897	8898	8901	9
8896	8897	8898	8908	9
8896	8899	8900	8901	9
8896	8899	8900	8907	9
8900	8901	8898	8897	9
8897	8898	8901	8906	9
8897	8898	8908	8910	9
8900	8899	8896	8897	9
8897	8896	8899	8905	9
8897	8896	8902	8903	9
8899	8896	8897	8898	9
8898	8897	8896	8902	9
8899	8900	8901	8898	9
8898	8901	8900	8907	9
8901	8898	8897	8904	9
8901	8898	8908	8910	9
8901	8900	8899	8905	9
8901	8900	8907	8909	9
8900	8901	8898	8908	9
8900	8899	8896	8902	9
8899	8900	8901	8906	9
8899	8900	8907	8909	9
8899	8896	8897	8904	9
8899	8896	8902	8903	9
8906	8901	8900	8907	9
8905	8899	8900	8907	9
8902	8896	8897	8904	9
8902	8896	8899	8905	9
8904	8897	8898	8908	9
8906	8901	8898	8908	9
8925	8928	8929	8930	9
8925	8928	8929	8936	9
8925	8926	8927	8930	9
8925	8926	8927	8937	9
8927	8930	8929	8928	9
8928	8929	8930	8935	9
8928	8929	8936	8938	9
8927	8926	8925	8928	9
8928	8925	8926	8933	9
8928	8925	8931	8932	9
8926	8925	8928	8929	9
8929	8928	8925	8931	9
8926	8927	8930	8929	9
8929	8930	8927	8937	9
8930	8929	8928	8934	9
8930	8929	8936	8938	9
8930	8927	8926	8933	9
8930	8927	8937	8939	9
8927	8930	8929	8936	9
8927	8926	8925	8931	9
8926	8927	8930	8935	9
8926	8927	8937	8939	9
8926	8925	8928	8934	9
8926	8925	8931	8932	9
8935	8930	8927	8937	9
8933	8926	8927	8937	9
8931	8925	8928	8934	9
8931	8925	8926	8933	9
8934	8928	8929	8936	9
8935	8930	8929	8936	9
8954	8957	8958	8959	9
8954	8957	8958	8965	9
8954	8955	8956	8959	9
8954	8955	8956	8966	9
8956	8959	8958	8957	9
8957	8958	8959	8964	9
8957	8958	8965	8967	9
8956	8955	8954	8957	9
8957	8954	8955	8962	9
8957	8954	8960	8961	9
8955	8954	8957	8958	9
8958	8957	8954	8960	9
8955	8956	8959	8958	9
8958	8959	8956	8966	9
8959	8958	8957	8963	9
8959	8958	8965	8967	9
8959	8956	8955	8962	9
8959	8956	8966	8968	9
8956	8959	8958	8965	9
8956	8955	8954	8960	9
8955	8956	8959	8964	9
8955	8956	8966	8968	9
8955	8954	8957	8963	9
8955	8954	8960	8961	9
8964	8959	8956	8966	9
8962	8955	8956	8966	9
8960	8954	8957	8963	9
8960	8954	8955	8962	9
8963	8957	8958	8965	9
8964	8959	8958	8965	9
8969	8972	8973	8974	9
8969	8972	8973	8980	9
8969	8970	8971	8974	9
8969	8970	8971	8981	9
8971	8974	8973	8972	9
8972	8973	8974	8979	9
8972	8973	8980	8982	9
8971	8970	8969	8972	9
8972	8969	8970	8977	9
8972	8969	8975	8976	9
8970	8969	8972	8973	9
8973	8972	8969	8975	9
8970	8971	8974	8973	9
8973	8974	8971	8981	9
8974	8973	8972	8978	9
8974	8973	8980	8982	9
8974	8971	8970	8977	9
8974	8971	8981	8983	9
8971	8974	8973	8980	9
8971	8970	8969	8975	9
8970	8971	8974	8979	9
8970	8971	8981	8983	9
8970	8969	8972	8978	9
8970	8969	8975	8976	9
8979	8974	8971	8981	9
8977	8970	8971	8981	9
8975	8969	8972	8978	9
8975	8969	8970	8977	9
8978	8972	8973	8980	9
8979	8974	8973	8980	9
8998	8999	9000	9003	9
8998	8999	9000	9010	9
8998	9001	9002	9003	9
8998	9001	9002	9009	9
8999	9000	9003	9002	9
8999	9000	9003	9008	9
8999	9000	9010	9012	9
8999	8998	9001	9002	9
8999	8998	9001	9007	9
8999	8998	9004	9005	9
9000	8999	8998	9001	9
9000	8999	8998	9004	9
9000	9003	9002	9001	9
9000	9003	9002	9009	9
9003	9000	8999	9006	9
9003	9000	9010	9012	9
9003	9002	9001	9007	9
9003	9002	9009	9011	9
9002	9003	9000	9010	9
9002	9001	8998	9004	9
9001	9002	9003	9008	9
9001	9002	9009	9011	9
9001	8998	8999	9006	9
9001	8998	9004	9005	9
9008	9003	9002	9009	9
9007	9001	9002	9009	9
9004	8998	8999	9006	9
9004	8998	9001	9007	9
9006	8999	9000	9010	9
9008	9003	9000	9010	9
9013	9014	9015	9018	9
9013	9014	9015	9025	9
9013	9016	9017	9018	9
9013	9016	9017	9024	9
9014	9015	9018	9017	9
9014	9015	9018	9023	9
9014	9015	9025	9027	9
9014	9013	9016	9017	9
9014	9013	9016	9022	9
9014	9013	9019	9020	9
9015	9014	9013	9016	9
9015	9014	9013	9019	9
9015	9018	9017	9016	9
9015	9018	9017	9024	9
9018	9015	9014	9021	9
9018	9015	9025	9027	9
9018	9017	9016	9022	9
9018	9017	9024	9026	9
9017	9018	9015	9025	9
9017	9016	9013	9019	9
9016	9017	9018	9023	9
9016	9017	9024	9026	9
9016	9013	9014	9021	9
9016	9013	9019	9020	9
9023	9018	9017	9024	9
9022	9016	9017	9024	9
9019	9013	9014	9021	9
9019	9013	9016	9022	9
9021	9014	9015	9025	9
9023	9018	9015	9025	9
9042	9043	9044	9047	9
9042	9043	9044	9054	9
9042	9045	9046	9047	9
9042	9045	9046	9053	9
9043	9044	9047	9046	9
9043	9044	9047	9052	9
9043	9044	9054	9056	9
9043	9042	9045	9046	9
9043	9042	9045	9051	9
9043	9042	9048	9049	9
9044	9043	9042	9045	9
9044	9043	9042	9048	9
9044	9047	9046	9045	9
9044	9047	9046	9053	9
9047	9044	9043	9050	9
9047	9044	9054	9056	9
9047	9046	9045	9051	9
9047	9046	9053	9055	9
9046	9047	9044	9054	9
9046	9045	9042	9048	9
9045	9046	9047	9052	9
9045	9046	9053	9055	9
9045	9042	9043	9050	9
9045	9042	9048	9049	9
9052	9047	9046	9053	9
9051	9045	9046	9053	9
9048	9042	9043	9050	9
9048	9042	9045	9051	9
9050	9043	9044	9054	9
9052	9047	9044	9054	9
9057	9060	9061	9062	9
9057	9060	9061	9068	9
9057	9058	9059	9062	9
9057	9058	9059	9069	9
9060	9061	9062	9059	9
9060	9061	9062	9067	9
9060	9061	9068	9070	9
9060	9057	9058	9059	9
9060	9057	9058	9065	9
9060	9057	9063	9064	9
9061	9060	9057	9058	9
9061	9060	9057	9063	9
9061	9062	9059	9058	9
9061	9062	9059	9069	9
9062	9061	9060	9066	9
9062	9061	9068	9070	9
9062	9059	9058	9065	9
9062	9059	9069	9071	9
9059	9062	9061	9068	9
9059	9058	9057	9063	9
9058	9059	9062	9067	9
9058	9059	9069	9071	9
9058	9057	9060	9066	9
9058	9057	9063	9064	9
9067	9062	9059	9069	9
9065	9058	9059	9069	9
9063	9057	9060	9066	9
9063	9057	9058	9065	9
9066	9060	9061	9068	9
9067	9062	9061	9068	9
9072	9073	9074	9077	9
9072	9073	9074	9084	9
9072	9075	9076	9077	9
9072	9075	9076	9083	9
9076	9077	9074	9073	9
9073	9074	9077	9082	9
9073	9074	9084	9086	9
9076	9075	9072	9073	9
9073	9072	9075	9081	9
9073	9072	9078	9079	9
9075	9072	9073	9074	9
9074	9073	9072	9078	9
9075	9076	9077	9074	9
9074	9077	9076	9083	9
9077	9074	9073	9080	9
9077	9074	9084	9086	9
9077	9076	9075	9081	9
9077	9076	9083	9085	9
9076	9077	9074	9084	9
9076	9075	9072	9078	9
9075	9076	9077	9082	9
9075	9076	9083	9085	9
9075	9072	9073	9080	9
9075	9072	9078	9079	9
9082	9077	9076	9083	9
9081	9075	9076	9083	9
9078	9072	9073	9080	9
9078	9072	9075	9081	9
9080	9073	9074	9084	9
9082	9077	9074	9084	9
2143	2144	2145	2148	9
2143	2144	2145	2155	9
2143	2146	2147	2148	9
2143	2146	2147	2154	9
2144	2145	2148	2147	9
2144	2145	2148	2153	9
2144	2145	2155	2157	9
2144	2145	2155	2158	9
2144	2143	2146	2147	9
2144	2143	2146	2152	9
2144	2143	2149	2150	9
2145	2144	2143	2146	9
2145	2144	2143	2149	9
2145	2148	2147	2146	9
2145	2148	2147	2154	9
2145	2155	2158	2159	9
2148	2145	2144	2151	9
2148	2145	2155	2157	9
2148	2145	2155	2158	9
2148	2147	2146	2152	9
2148	2147	2154	2156	9
2147	2148	2145	2155	9
2147	2146	2143	2149	9
2146	2147	2148	2153	9
2146	2147	2154	2156	9
2146	2143	2144	2151	9
2146	2143	2149	2150	9
2153	2148	2147	2154	9
2152	2146	2147	2154	9
2149	2143	2144	2151	9
2149	2143	2146	2152	9
2151	2144	2145	2155	9
2153	2148	2145	2155	9
2157	2155	2158	2159	9
2174	2177	2178	2179	9
2174	2177	2178	2185	9
2174	2175	2176	2179	9
2174	2175	2176	2186	9
2176	2179	2178	2177	9
2177	2178	2179	2184	9
2177	2178	2185	2187	9
2176	2175	2174	2177	9
2177	2174	2175	2182	9
2177	2174	2180	2181	9
2175	2174	2177	2178	9
2178	2177	2174	2180	9
2175	2176	2179	2178	9
2178	2179	2176	2186	9
2179	2178	2177	2183	9
2179	2178	2185	2187	9
2179	2176	2175	2182	9
2179	2176	2186	2188	9
2179	2176	2186	2189	9
2176	2179	2178	2185	9
2176	2175	2174	2180	9
2176	2186	2189	2190	9
2175	2176	2179	2184	9
2175	2176	2186	2188	9
2175	2176	2186	2189	9
2175	2174	2177	2183	9
2175	2174	2180	2181	9
2184	2179	2176	2186	9
2182	2175	2176	2186	9
2180	2174	2177	2183	9
2180	2174	2175	2182	9
2183	2177	2178	2185	9
2184	2179	2178	2185	9
2188	2186	2189	2190	9
9101	9102	9103	9106	9
9101	9102	9103	9113	9
9101	9104	9105	9106	9
9101	9104	9105	9112	9
9102	9103	9106	9105	9
9102	9103	9106	9111	9
9102	9103	9113	9115	9
9102	9101	9104	9105	9
9102	9101	9104	9110	9
9102	9101	9107	9108	9
9103	9102	9101	9104	9
9103	9102	9101	9107	9
9103	9106	9105	9104	9
9103	9106	9105	9112	9
9106	9103	9102	9109	9
9106	9103	9113	9115	9
9106	9105	9104	9110	9
9106	9105	9112	9114	9
9105	9106	9103	9113	9
9105	9104	9101	9107	9
9104	9105	9106	9111	9
9104	9105	9112	9114	9
9104	9101	9102	9109	9
9104	9101	9107	9108	9
9111	9106	9105	9112	9
9110	9104	9105	9112	9
9107	9101	9102	9109	9
9107	9101	9104	9110	9
9109	9102	9103	9113	9
9111	9106	9103	9113	9
9131	9130	9133	9134	9
9134	9133	9130	9136	9
9131	9132	9135	9134	9
9134	9135	9132	9142	9
9132	9131	9130	9133	9
9133	9130	9131	9138	9
9133	9130	9136	9137	9
9132	9135	9134	9133	9
9133	9134	9135	9140	9
9133	9134	9141	9143	9
9130	9133	9134	9135	9
9130	9133	9134	9141	9
9130	9131	9132	9135	9
9130	9131	9132	9142	9
9131	9130	9133	9139	9
9131	9130	9136	9137	9
9131	9132	9135	9140	9
9131	9132	9142	9144	9
9132	9131	9130	9136	9
9132	9135	9134	9141	9
9135	9132	9131	9138	9
9135	9132	9142	9144	9
9135	9134	9133	9139	9
9135	9134	9141	9143	9
9138	9131	9132	9142	9
9140	9135	9132	9142	9
9139	9133	9134	9141	9
9140	9135	9134	9141	9
9136	9130	9133	9139	9
9136	9130	9131	9138	9
9159	9162	9163	9164	9
9159	9162	9163	9170	9
9159	9160	9161	9164	9
9159	9160	9161	9171	9
9161	9164	9163	9162	9
9162	9163	9164	9169	9
9162	9163	9170	9172	9
9161	9160	9159	9162	9
9162	9159	9160	9167	9
9162	9159	9165	9166	9
9160	9159	9162	9163	9
9163	9162	9159	9165	9
9160	9161	9164	9163	9
9163	9164	9161	9171	9
9164	9163	9162	9168	9
9164	9163	9170	9172	9
9164	9161	9160	9167	9
9164	9161	9171	9173	9
9161	9164	9163	9170	9
9161	9160	9159	9165	9
9160	9161	9164	9169	9
9160	9161	9171	9173	9
9160	9159	9162	9168	9
9160	9159	9165	9166	9
9169	9164	9161	9171	9
9167	9160	9161	9171	9
9165	9159	9162	9168	9
9165	9159	9160	9167	9
9168	9162	9163	9170	9
9169	9164	9163	9170	9
2191	2192	2193	2196	9
2191	2192	2193	2203	9
2191	2194	2195	2196	9
2191	2194	2195	2202	9
2192	2193	2196	2195	9
2192	2193	2196	2201	9
2192	2193	2203	2205	9
2192	2193	2203	2206	9
2192	2191	2194	2195	9
2192	2191	2194	2200	9
2192	2191	2197	2198	9
2193	2192	2191	2194	9
2193	2192	2191	2197	9
2193	2196	2195	2194	9
2193	2196	2195	2202	9
2193	2203	2206	2207	9
2196	2193	2192	2199	9
2196	2193	2203	2205	9
2196	2193	2203	2206	9
2196	2195	2194	2200	9
2196	2195	2202	2204	9
2195	2196	2193	2203	9
2195	2194	2191	2197	9
2194	2195	2196	2201	9
2194	2195	2202	2204	9
2194	2191	2192	2199	9
2194	2191	2197	2198	9
2201	2196	2195	2202	9
2200	2194	2195	2202	9
2197	2191	2192	2199	9
2197	2191	2194	2200	9
2199	2192	2193	2203	9
2201	2196	2193	2203	9
2205	2203	2206	2207	9
9188	9191	9192	9193	9
9188	9191	9192	9199	9
9188	9189	9190	9193	9
9188	9189	9190	9200	9
9190	9193	9192	9191	9
9191	9192	9193	9198	9
9191	9192	9199	9201	9
9190	9189	9188	9191	9
9191	9188	9189	9196	9
9191	9188	9194	9195	9
9189	9188	9191	9192	9
9192	9191	9188	9194	9
9189	9190	9193	9192	9
9192	9193	9190	9200	9
9193	9192	9191	9197	9
9193	9192	9199	9201	9
9193	9190	9189	9196	9
9193	9190	9200	9202	9
9190	9193	9192	9199	9
9190	9189	9188	9194	9
9189	9190	9193	9198	9
9189	9190	9200	9202	9
9189	9188	9191	9197	9
9189	9188	9194	9195	9
9198	9193	9190	9200	9
9196	9189	9190	9200	9
9194	9188	9191	9197	9
9194	9188	9189	9196	9
9197	9191	9192	9199	9
9198	9193	9192	9199	9
9217	9220	9221	9222	9
9217	9220	9221	9228	9
9217	9218	9219	9222	9
9217	9218	9219	9229	9
9219	9222	9221	9220	9
9220	9221	9222	9227	9
9220	9221	9228	9230	9
9219	9218	9217	9220	9
9220	9217	9218	9225	9
9220	9217	9223	9224	9
9218	9217	9220	9221	9
9221	9220	9217	9223	9
9218	9219	9222	9221	9
9221	9222	9219	9229	9
9222	9221	9220	9226	9
9222	9221	9228	9230	9
9222	9219	9218	9225	9
9222	9219	9229	9231	9
9219	9222	9221	9228	9
9219	9218	9217	9223	9
9218	9219	9222	9227	9
9218	9219	9229	9231	9
9218	9217	9220	9226	9
9218	9217	9223	9224	9
9227	9222	9219	9229	9
9225	9218	9219	9229	9
9223	9217	9220	9226	9
9223	9217	9218	9225	9
9226	9220	9221	9228	9
9227	9222	9221	9228	9
9246	9249	9250	9251	9
9246	9249	9250	9257	9
9246	9247	9248	9251	9
9246	9247	9248	9258	9
9248	9251	9250	9249	9
9249	9250	9251	9256	9
9249	9250	9257	9259	9
9248	9247	9246	9249	9
9249	9246	9247	9254	9
9249	9246	9252	9253	9
9247	9246	9249	9250	9
9250	9249	9246	9252	9
9247	9248	9251	9250	9
9250	9251	9248	9258	9
9251	9250	9249	9255	9
9251	9250	9257	9259	9
9251	9248	9247	9254	9
9251	9248	9258	9260	9
9248	9251	9250	9257	9
9248	9247	9246	9252	9
9247	9248	9251	9256	9
9247	9248	9258	9260	9
9247	9246	9249	9255	9
9247	9246	9252	9253	9
9256	9251	9248	9258	9
9254	9247	9248	9258	9
9252	9246	9249	9255	9
9252	9246	9247	9254	9
9255	9249	9250	9257	9
9256	9251	9250	9257	9
9279	9278	9275	9276	9
9279	9278	9275	9281	9
9279	9280	9277	9276	9
9279	9280	9277	9287	9
9278	9275	9276	9277	9
9278	9275	9276	9283	9
9278	9275	9281	9282	9
9278	9279	9280	9277	9
9278	9279	9280	9285	9
9278	9279	9286	9288	9
9275	9278	9279	9280	9
9275	9278	9279	9286	9
9275	9276	9277	9280	9
9275	9276	9277	9287	9
9276	9275	9278	9284	9
9276	9275	9281	9282	9
9276	9277	9280	9285	9
9276	9277	9287	9289	9
9277	9276	9275	9281	9
9277	9280	9279	9286	9
9280	9277	9276	9283	9
9280	9277	9287	9289	9
9280	9279	9278	9284	9
9280	9279	9286	9288	9
9283	9276	9277	9287	9
9285	9280	9277	9287	9
9286	9279	9278	9284	9
9286	9279	9280	9285	9
9284	9278	9275	9281	9
9283	9276	9275	9281	9
9304	9307	9308	9309	9
9304	9307	9308	9315	9
9304	9305	9306	9309	9
9304	9305	9306	9316	9
9307	9308	9309	9306	9
9307	9308	9309	9314	9
9307	9308	9315	9317	9
9307	9304	9305	9306	9
9307	9304	9305	9312	9
9307	9304	9310	9311	9
9308	9307	9304	9305	9
9308	9307	9304	9310	9
9308	9309	9306	9305	9
9308	9309	9306	9316	9
9309	9308	9307	9313	9
9309	9308	9315	9317	9
9309	9306	9305	9312	9
9309	9306	9316	9318	9
9306	9309	9308	9315	9
9306	9305	9304	9310	9
9305	9306	9309	9314	9
9305	9306	9316	9318	9
9305	9304	9307	9313	9
9305	9304	9310	9311	9
9314	9309	9306	9316	9
9312	9305	9306	9316	9
9310	9304	9307	9313	9
9310	9304	9305	9312	9
9313	9307	9308	9315	9
9314	9309	9308	9315	9
9333	9334	9335	9338	9
9333	9334	9335	9345	9
9333	9336	9337	9338	9
9333	9336	9337	9344	9
9334	9335	9338	9337	9
9334	9335	9338	9343	9
9334	9335	9345	9347	9
9334	9333	9336	9337	9
9334	9333	9336	9342	9
9334	9333	9339	9340	9
9335	9334	9333	9336	9
9335	9334	9333	9339	9
9335	9338	9337	9336	9
9335	9338	9337	9344	9
9338	9335	9334	9341	9
9338	9335	9345	9347	9
9338	9337	9336	9342	9
9338	9337	9344	9346	9
9337	9338	9335	9345	9
9337	9336	9333	9339	9
9336	9337	9338	9343	9
9336	9337	9344	9346	9
9336	9333	9334	9341	9
9336	9333	9339	9340	9
9343	9338	9337	9344	9
9342	9336	9337	9344	9
9339	9333	9334	9341	9
9339	9333	9336	9342	9
9341	9334	9335	9345	9
9343	9338	9335	9345	9
9362	9363	9364	9367	9
9362	9363	9364	9374	9
9362	9365	9366	9367	9
9362	9365	9366	9373	9
9363	9364	9367	9366	9
9363	9364	9367	9372	9
9363	9364	9374	9376	9
9363	9362	9365	9366	9
9363	9362	9365	9371	9
9363	9362	9368	9369	9
9364	9363	9362	9365	9
9364	9363	9362	9368	9
9364	9367	9366	9365	9
9364	9367	9366	9373	9
9367	9364	9363	9370	9
9367	9364	9374	9376	9
9367	9366	9365	9371	9
9367	9366	9373	9375	9
9366	9367	9364	9374	9
9366	9365	9362	9368	9
9365	9366	9367	9372	9
9365	9366	9373	9375	9
9365	9362	9363	9370	9
9365	9362	9368	9369	9
9372	9367	9366	9373	9
9371	9365	9366	9373	9
9368	9362	9363	9370	9
9368	9362	9365	9371	9
9370	9363	9364	9374	9
9372	9367	9364	9374	9
9391	9394	9395	9396	9
9391	9394	9395	9402	9
9391	9392	9393	9396	9
9391	9392	9393	9403	9
9393	9396	9395	9394	9
9394	9395	9396	9401	9
9394	9395	9402	9404	9
9393	9392	9391	9394	9
9394	9391	9392	9399	9
9394	9391	9397	9398	9
9392	9391	9394	9395	9
9395	9394	9391	9397	9
9392	9393	9396	9395	9
9395	9396	9393	9403	9
9396	9395	9394	9400	9
9396	9395	9402	9404	9
9396	9393	9392	9399	9
9396	9393	9403	9405	9
9393	9396	9395	9402	9
9393	9392	9391	9397	9
9392	9393	9396	9401	9
9392	9393	9403	9405	9
9392	9391	9394	9400	9
9392	9391	9397	9398	9
9401	9396	9393	9403	9
9399	9392	9393	9403	9
9397	9391	9394	9400	9
9397	9391	9392	9399	9
9400	9394	9395	9402	9
9401	9396	9395	9402	9
9420	9423	9424	9425	9
9420	9423	9424	9431	9
9420	9421	9422	9425	9
9420	9421	9422	9432	9
9422	9425	9424	9423	9
9423	9424	9425	9430	9
9423	9424	9431	9433	9
9422	9421	9420	9423	9
9423	9420	9421	9428	9
9423	9420	9426	9427	9
9421	9420	9423	9424	9
9424	9423	9420	9426	9
9421	9422	9425	9424	9
9424	9425	9422	9432	9
9425	9424	9423	9429	9
9425	9424	9431	9433	9
9425	9422	9421	9428	9
9425	9422	9432	9434	9
9422	9425	9424	9431	9
9422	9421	9420	9426	9
9421	9422	9425	9430	9
9421	9422	9432	9434	9
9421	9420	9423	9429	9
9421	9420	9426	9427	9
9430	9425	9422	9432	9
9428	9421	9422	9432	9
9426	9420	9423	9429	9
9426	9420	9421	9428	9
9429	9423	9424	9431	9
9430	9425	9424	9431	9
2222	2223	2224	2227	9
2222	2223	2224	2234	9
2222	2225	2226	2227	9
2222	2225	2226	2233	9
2223	2224	2227	2226	9
2223	2224	2227	2232	9
2223	2224	2234	2236	9
2223	2224	2234	2237	9
2223	2222	2225	2226	9
2223	2222	2225	2231	9
2223	2222	2228	2229	9
2224	2223	2222	2225	9
2224	2223	2222	2228	9
2224	2227	2226	2225	9
2224	2227	2226	2233	9
2224	2234	2237	2238	9
2227	2224	2223	2230	9
2227	2224	2234	2236	9
2227	2224	2234	2237	9
2227	2226	2225	2231	9
2227	2226	2233	2235	9
2226	2227	2224	2234	9
2226	2225	2222	2228	9
2225	2226	2227	2232	9
2225	2226	2233	2235	9
2225	2222	2223	2230	9
2225	2222	2228	2229	9
2232	2227	2226	2233	9
2231	2225	2226	2233	9
2228	2222	2223	2230	9
2228	2222	2225	2231	9
2230	2223	2224	2234	9
2232	2227	2224	2234	9
2236	2234	2237	2238	9
9435	9438	9439	9440	9
9435	9438	9439	9446	9
9435	9436	9437	9440	9
9435	9436	9437	9447	9
9437	9440	9439	9438	9
9438	9439	9440	9445	9
9438	9439	9446	9448	9
9437	9436	9435	9438	9
9438	9435	9436	9443	9
9438	9435	9441	9442	9
9436	9435	9438	9439	9
9439	9438	9435	9441	9
9436	9437	9440	9439	9
9439	9440	9437	9447	9
9440	9439	9438	9444	9
9440	9439	9446	9448	9
9440	9437	9436	9443	9
9440	9437	9447	9449	9
9437	9440	9439	9446	9
9437	9436	9435	9441	9
9436	9437	9440	9445	9
9436	9437	9447	9449	9
9436	9435	9438	9444	9
9436	9435	9441	9442	9
9445	9440	9437	9447	9
9443	9436	9437	9447	9
9441	9435	9438	9444	9
9441	9435	9436	9443	9
9444	9438	9439	9446	9
9445	9440	9439	9446	9
9464	9467	9468	9469	9
9464	9467	9468	9475	9
9464	9465	9466	9469	9
9464	9465	9466	9476	9
9466	9469	9468	9467	9
9467	9468	9469	9474	9
9467	9468	9475	9477	9
9466	9465	9464	9467	9
9467	9464	9465	9472	9
9467	9464	9470	9471	9
9465	9464	9467	9468	9
9468	9467	9464	9470	9
9465	9466	9469	9468	9
9468	9469	9466	9476	9
9469	9468	9467	9473	9
9469	9468	9475	9477	9
9469	9466	9465	9472	9
9469	9466	9476	9478	9
9466	9469	9468	9475	9
9466	9465	9464	9470	9
9465	9466	9469	9474	9
9465	9466	9476	9478	9
9465	9464	9467	9473	9
9465	9464	9470	9471	9
9474	9469	9466	9476	9
9472	9465	9466	9476	9
9470	9464	9467	9473	9
9470	9464	9465	9472	9
9473	9467	9468	9475	9
9474	9469	9468	9475	9
9493	9494	9495	9498	9
9493	9494	9495	9505	9
9493	9496	9497	9498	9
9493	9496	9497	9504	9
9497	9498	9495	9494	9
9494	9495	9498	9503	9
9494	9495	9505	9507	9
9497	9496	9493	9494	9
9494	9493	9496	9502	9
9494	9493	9499	9500	9
9496	9493	9494	9495	9
9495	9494	9493	9499	9
9496	9497	9498	9495	9
9495	9498	9497	9504	9
9498	9495	9494	9501	9
9498	9495	9505	9507	9
9498	9497	9496	9502	9
9498	9497	9504	9506	9
9497	9498	9495	9505	9
9497	9496	9493	9499	9
9496	9497	9498	9503	9
9496	9497	9504	9506	9
9496	9493	9494	9501	9
9496	9493	9499	9500	9
9503	9498	9497	9504	9
9502	9496	9497	9504	9
9499	9493	9494	9501	9
9499	9493	9496	9502	9
9501	9494	9495	9505	9
9503	9498	9495	9505	9
9522	9525	9526	9527	9
9522	9525	9526	9533	9
9522	9523	9524	9527	9
9522	9523	9524	9534	9
9525	9526	9527	9524	9
9525	9526	9527	9532	9
9525	9526	9533	9535	9
9525	9522	9523	9524	9
9525	9522	9523	9530	9
9525	9522	9528	9529	9
9526	9525	9522	9523	9
9526	9525	9522	9528	9
9526	9527	9524	9523	9
9526	9527	9524	9534	9
9527	9526	9525	9531	9
9527	9526	9533	9535	9
9527	9524	9523	9530	9
9527	9524	9534	9536	9
9524	9527	9526	9533	9
9524	9523	9522	9528	9
9523	9524	9527	9532	9
9523	9524	9534	9536	9
9523	9522	9525	9531	9
9523	9522	9528	9529	9
9532	9527	9524	9534	9
9530	9523	9524	9534	9
9528	9522	9525	9531	9
9528	9522	9523	9530	9
9531	9525	9526	9533	9
9532	9527	9526	9533	9
9537	9538	9539	9542	9
9537	9538	9539	9549	9
9537	9540	9541	9542	9
9537	9540	9541	9548	9
9538	9539	9542	9541	9
9538	9539	9542	9547	9
9538	9539	9549	9551	9
9538	9537	9540	9541	9
9538	9537	9540	9546	9
9538	9537	9543	9544	9
9539	9538	9537	9540	9
9539	9538	9537	9543	9
9539	9542	9541	9540	9
9539	9542	9541	9548	9
9542	9539	9538	9545	9
9542	9539	9549	9551	9
9542	9541	9540	9546	9
9542	9541	9548	9550	9
9541	9542	9539	9549	9
9541	9540	9537	9543	9
9540	9541	9542	9547	9
9540	9541	9548	9550	9
9540	9537	9538	9545	9
9540	9537	9543	9544	9
9547	9542	9541	9548	9
9546	9540	9541	9548	9
9543	9537	9538	9545	9
9543	9537	9540	9546	9
9545	9538	9539	9549	9
9547	9542	9539	9549	9
2257	2258	2255	2254	9
2257	2258	2255	2265	9
2257	2256	2253	2254	9
2257	2256	2253	2259	9
2258	2255	2254	2253	9
2258	2255	2254	2261	9
2258	2255	2265	2267	9
2258	2255	2265	2268	9
2258	2257	2256	2253	9
2258	2257	2256	2262	9
2258	2257	2264	2266	9
2255	2258	2257	2256	9
2255	2258	2257	2264	9
2255	2254	2253	2256	9
2255	2254	2253	2259	9
2255	2265	2268	2269	9
2254	2255	2258	2263	9
2254	2255	2265	2267	9
2254	2255	2265	2268	9
2254	2253	2256	2262	9
2254	2253	2259	2260	9
2253	2254	2255	2265	9
2253	2256	2257	2264	9
2256	2253	2254	2261	9
2256	2253	2259	2260	9
2256	2257	2258	2263	9
2256	2257	2264	2266	9
2261	2254	2253	2259	9
2262	2256	2253	2259	9
2264	2257	2258	2263	9
2264	2257	2256	2262	9
2263	2258	2255	2265	9
2261	2254	2255	2265	9
2267	2265	2268	2269	9
9552	9553	9554	9557	9
9552	9553	9554	9564	9
9552	9555	9556	9557	9
9552	9555	9556	9563	9
9553	9554	9557	9556	9
9553	9554	9557	9562	9
9553	9554	9564	9566	9
9553	9552	9555	9556	9
9553	9552	9555	9561	9
9553	9552	9558	9559	9
9554	9553	9552	9555	9
9554	9553	9552	9558	9
9554	9557	9556	9555	9
9554	9557	9556	9563	9
9557	9554	9553	9560	9
9557	9554	9564	9566	9
9557	9556	9555	9561	9
9557	9556	9563	9565	9
9556	9557	9554	9564	9
9556	9555	9552	9558	9
9555	9556	9557	9562	9
9555	9556	9563	9565	9
9555	9552	9553	9560	9
9555	9552	9558	9559	9
9562	9557	9556	9563	9
9561	9555	9556	9563	9
9558	9552	9553	9560	9
9558	9552	9555	9561	9
9560	9553	9554	9564	9
9562	9557	9554	9564	9
9581	9582	9583	9586	9
9581	9582	9583	9593	9
9581	9584	9585	9586	9
9581	9584	9585	9592	9
9582	9583	9586	9585	9
9582	9583	9586	9591	9
9582	9583	9593	9595	9
9582	9581	9584	9585	9
9582	9581	9584	9590	9
9582	9581	9587	9588	9
9583	9582	9581	9584	9
9583	9582	9581	9587	9
9583	9586	9585	9584	9
9583	9586	9585	9592	9
9586	9583	9582	9589	9
9586	9583	9593	9595	9
9586	9585	9584	9590	9
9586	9585	9592	9594	9
9585	9586	9583	9593	9
9585	9584	9581	9587	9
9584	9585	9586	9591	9
9584	9585	9592	9594	9
9584	9581	9582	9589	9
9584	9581	9587	9588	9
9591	9586	9585	9592	9
9590	9584	9585	9592	9
9587	9581	9582	9589	9
9587	9581	9584	9590	9
9589	9582	9583	9593	9
9591	9586	9583	9593	9
9610	9611	9612	9615	9
9610	9611	9612	9622	9
9610	9613	9614	9615	9
9610	9613	9614	9621	9
9611	9612	9615	9614	9
9611	9612	9615	9620	9
9611	9612	9622	9624	9
9611	9610	9613	9614	9
9611	9610	9613	9619	9
9611	9610	9616	9617	9
9612	9611	9610	9613	9
9612	9611	9610	9616	9
9612	9615	9614	9613	9
9612	9615	9614	9621	9
9615	9612	9611	9618	9
9615	9612	9622	9624	9
9615	9614	9613	9619	9
9615	9614	9621	9623	9
9614	9615	9612	9622	9
9614	9613	9610	9616	9
9613	9614	9615	9620	9
9613	9614	9621	9623	9
9613	9610	9611	9618	9
9613	9610	9616	9617	9
9620	9615	9614	9621	9
9619	9613	9614	9621	9
9616	9610	9611	9618	9
9616	9610	9613	9619	9
9618	9611	9612	9622	9
9620	9615	9612	9622	9
9625	9628	9629	9630	9
9625	9628	9629	9636	9
9625	9626	9627	9630	9
9625	9626	9627	9637	9
9627	9630	9629	9628	9
9628	9629	9630	9635	9
9628	9629	9636	9638	9
9627	9626	9625	9628	9
9628	9625	9626	9633	9
9628	9625	9631	9632	9
9626	9625	9628	9629	9
9629	9628	9625	9631	9
9626	9627	9630	9629	9
9629	9630	9627	9637	9
9630	9629	9628	9634	9
9630	9629	9636	9638	9
9630	9627	9626	9633	9
9630	9627	9637	9639	9
9627	9630	9629	9636	9
9627	9626	9625	9631	9
9626	9627	9630	9635	9
9626	9627	9637	9639	9
9626	9625	9628	9634	9
9626	9625	9631	9632	9
9635	9630	9627	9637	9
9633	9626	9627	9637	9
9631	9625	9628	9634	9
9631	9625	9626	9633	9
9634	9628	9629	9636	9
9635	9630	9629	9636	9
9640	9643	9644	9645	9
9640	9643	9644	9651	9
9640	9641	9642	9645	9
9640	9641	9642	9652	9
9642	9645	9644	9643	9
9643	9644	9645	9650	9
9643	9644	9651	9653	9
9642	9641	9640	9643	9
9643	9640	9641	9648	9
9643	9640	9646	9647	9
9641	9640	9643	9644	9
9644	9643	9640	9646	9
9641	9642	9645	9644	9
9644	9645	9642	9652	9
9645	9644	9643	9649	9
9645	9644	9651	9653	9
9645	9642	9641	9648	9
9645	9642	9652	9654	9
9642	9645	9644	9651	9
9642	9641	9640	9646	9
9641	9642	9645	9650	9
9641	9642	9652	9654	9
9641	9640	9643	9649	9
9641	9640	9646	9647	9
9650	9645	9642	9652	9
9648	9641	9642	9652	9
9646	9640	9643	9649	9
9646	9640	9641	9648	9
9649	9643	9644	9651	9
9650	9645	9644	9651	9
9655	9656	9657	9660	9
9655	9656	9657	9667	9
9655	9658	9659	9660	9
9655	9658	9659	9666	9
9659	9660	9657	9656	9
9656	9657	9660	9665	9
9656	9657	9667	9669	9
9659	9658	9655	9656	9
9656	9655	9658	9664	9
9656	9655	9661	9662	9
9658	9655	9656	9657	9
9657	9656	9655	9661	9
9658	9659	9660	9657	9
9657	9660	9659	9666	9
9660	9657	9656	9663	9
9660	9657	9667	9669	9
9660	9659	9658	9664	9
9660	9659	9666	9668	9
9659	9660	9657	9667	9
9659	9658	9655	9661	9
9658	9659	9660	9665	9
9658	9659	9666	9668	9
9658	9655	9656	9663	9
9658	9655	9661	9662	9
9665	9660	9659	9666	9
9664	9658	9659	9666	9
9661	9655	9656	9663	9
9661	9655	9658	9664	9
9663	9656	9657	9667	9
9665	9660	9657	9667	9
9686	9685	9684	9687	9
9686	9685	9684	9690	9
9686	9689	9688	9687	9
9686	9689	9688	9695	9
9688	9687	9684	9685	9
9685	9684	9687	9693	9
9685	9684	9690	9691	9
9688	9689	9686	9685	9
9685	9686	9689	9694	9
9685	9686	9696	9698	9
9689	9686	9685	9684	9
9684	9685	9686	9696	9
9689	9688	9687	9684	9
9684	9687	9688	9695	9
9687	9684	9685	9692	9
9687	9684	9690	9691	9
9687	9688	9689	9694	9
9687	9688	9695	9697	9
9688	9687	9684	9690	9
9688	9689	9686	9696	9
9689	9688	9687	9693	9
9689	9688	9695	9697	9
9689	9686	9685	9692	9
9689	9686	9696	9698	9
9693	9687	9688	9695	9
9694	9689	9688	9695	9
9696	9686	9685	9692	9
9696	9686	9689	9694	9
9692	9685	9684	9690	9
9693	9687	9684	9690	9
9713	9714	9715	9718	9
9713	9714	9715	9725	9
9713	9716	9717	9718	9
9713	9716	9717	9724	9
9714	9715	9718	9717	9
9714	9715	9718	9723	9
9714	9715	9725	9727	9
9714	9713	9716	9717	9
9714	9713	9716	9722	9
9714	9713	9719	9720	9
9715	9714	9713	9716	9
9715	9714	9713	9719	9
9715	9718	9717	9716	9
9715	9718	9717	9724	9
9718	9715	9714	9721	9
9718	9715	9725	9727	9
9718	9717	9716	9722	9
9718	9717	9724	9726	9
9717	9718	9715	9725	9
9717	9716	9713	9719	9
9716	9717	9718	9723	9
9716	9717	9724	9726	9
9716	9713	9714	9721	9
9716	9713	9719	9720	9
9723	9718	9717	9724	9
9722	9716	9717	9724	9
9719	9713	9714	9721	9
9719	9713	9716	9722	9
9721	9714	9715	9725	9
9723	9718	9715	9725	9
9742	9743	9744	9747	9
9742	9743	9744	9754	9
9742	9745	9746	9747	9
9742	9745	9746	9753	9
9743	9744	9747	9746	9
9743	9744	9747	9752	9
9743	9744	9754	9756	9
9743	9742	9745	9746	9
9743	9742	9745	9751	9
9743	9742	9748	9749	9
9744	9743	9742	9745	9
9744	9743	9742	9748	9
9744	9747	9746	9745	9
9744	9747	9746	9753	9
9747	9744	9743	9750	9
9747	9744	9754	9756	9
9747	9746	9745	9751	9
9747	9746	9753	9755	9
9746	9747	9744	9754	9
9746	9745	9742	9748	9
9745	9746	9747	9752	9
9745	9746	9753	9755	9
9745	9742	9743	9750	9
9745	9742	9748	9749	9
9752	9747	9746	9753	9
9751	9745	9746	9753	9
9748	9742	9743	9750	9
9748	9742	9745	9751	9
9750	9743	9744	9754	9
9752	9747	9744	9754	9
9757	9758	9759	9762	9
9757	9758	9759	9769	9
9757	9760	9761	9762	9
9757	9760	9761	9768	9
9758	9759	9762	9761	9
9758	9759	9762	9767	9
9758	9759	9769	9771	9
9758	9757	9760	9761	9
9758	9757	9760	9766	9
9758	9757	9763	9764	9
9759	9758	9757	9760	9
9759	9758	9757	9763	9
9759	9762	9761	9760	9
9759	9762	9761	9768	9
9762	9759	9758	9765	9
9762	9759	9769	9771	9
9762	9761	9760	9766	9
9762	9761	9768	9770	9
9761	9762	9759	9769	9
9761	9760	9757	9763	9
9760	9761	9762	9767	9
9760	9761	9768	9770	9
9760	9757	9758	9765	9
9760	9757	9763	9764	9
9767	9762	9761	9768	9
9766	9760	9761	9768	9
9763	9757	9758	9765	9
9763	9757	9760	9766	9
9765	9758	9759	9769	9
9767	9762	9759	9769	9
2300	2301	2302	2303	9
2300	2301	2302	2308	9
2300	2305	2304	2303	9
2300	2305	2304	2306	9
2301	2302	2303	2304	9
2301	2302	2303	2312	9
2301	2302	2308	2309	9
2301	2302	2308	2310	9
2301	2300	2305	2304	9
2301	2300	2305	2313	9
2301	2300	2298	2299	9
2302	2301	2300	2305	9
2302	2301	2300	2298	9
2302	2303	2304	2305	9
2302	2303	2304	2306	9
2303	2302	2301	2311	9
2303	2302	2308	2309	9
2303	2302	2308	2310	9
2303	2304	2305	2313	9
2303	2304	2306	2307	9
2304	2303	2302	2308	9
2304	2305	2300	2298	9
2305	2304	2303	2312	9
2305	2304	2306	2307	9
2305	2300	2301	2311	9
2305	2300	2298	2299	9
2312	2303	2304	2306	9
2313	2305	2304	2306	9
2298	2300	2301	2311	9
2298	2300	2305	2313	9
2311	2301	2302	2308	9
2312	2303	2302	2308	9
2316	2315	2314	2317	9
2316	2315	2314	2320	9
2316	2319	2318	2317	9
2316	2319	2318	2325	9
2316	2326	2329	2330	9
2315	2314	2317	2318	9
2315	2314	2317	2323	9
2315	2314	2320	2321	9
2315	2316	2319	2318	9
2315	2316	2319	2324	9
2315	2316	2326	2328	9
2315	2316	2326	2329	9
2314	2315	2316	2319	9
2314	2315	2316	2326	9
2314	2317	2318	2319	9
2314	2317	2318	2325	9
2317	2314	2315	2322	9
2317	2314	2320	2321	9
2317	2318	2319	2324	9
2317	2318	2325	2327	9
2318	2317	2314	2320	9
2318	2319	2316	2326	9
2319	2318	2317	2323	9
2319	2318	2325	2327	9
2319	2316	2315	2322	9
2319	2316	2326	2328	9
2319	2316	2326	2329	9
2323	2317	2318	2325	9
2324	2319	2318	2325	9
2322	2315	2316	2326	9
2324	2319	2316	2326	9
2320	2314	2315	2322	9
2320	2314	2317	2323	9
2328	2326	2329	2330	9
231	230	229	228	9
228	229	230	236	9
231	232	233	228	9
228	233	232	234	9
228	226	225	239	9
232	231	230	229	9
229	230	231	241	9
229	230	236	237	9
229	230	236	238	9
232	233	228	229	9
229	228	233	242	9
229	228	226	227	9
229	228	226	225	9
230	229	228	233	9
230	229	228	226	9
230	231	232	233	9
230	231	232	234	9
231	230	229	240	9
231	230	236	237	9
231	230	236	238	9
231	232	233	242	9
231	232	234	235	9
232	231	230	236	9
232	233	228	226	9
233	232	231	241	9
233	232	234	235	9
233	228	229	240	9
233	228	226	227	9
233	228	226	225	9
234	232	231	241	9
234	232	233	242	9
240	229	228	226	9
242	233	228	226	9
240	229	230	236	9
241	231	230	236	9
227	226	225	239	9
9786	9789	9790	9791	9
9786	9789	9790	9797	9
9786	9787	9788	9791	9
9786	9787	9788	9798	9
9788	9791	9790	9789	9
9789	9790	9791	9796	9
9789	9790	9797	9799	9
9788	9787	9786	9789	9
9789	9786	9787	9794	9
9789	9786	9792	9793	9
9787	9786	9789	9790	9
9790	9789	9786	9792	9
9787	9788	9791	9790	9
9790	9791	9788	9798	9
9791	9790	9789	9795	9
9791	9790	9797	9799	9
9791	9788	9787	9794	9
9791	9788	9798	9800	9
9788	9791	9790	9797	9
9788	9787	9786	9792	9
9787	9788	9791	9796	9
9787	9788	9798	9800	9
9787	9786	9789	9795	9
9787	9786	9792	9793	9
9796	9791	9788	9798	9
9794	9787	9788	9798	9
9792	9786	9789	9795	9
9792	9786	9787	9794	9
9795	9789	9790	9797	9
9796	9791	9790	9797	9
9815	9816	9817	9820	9
9815	9816	9817	9827	9
9815	9818	9819	9820	9
9815	9818	9819	9826	9
9816	9817	9820	9819	9
9816	9817	9820	9825	9
9816	9817	9827	9829	9
9816	9815	9818	9819	9
9816	9815	9818	9824	9
9816	9815	9821	9822	9
9817	9816	9815	9818	9
9817	9816	9815	9821	9
9817	9820	9819	9818	9
9817	9820	9819	9826	9
9820	9817	9816	9823	9
9820	9817	9827	9829	9
9820	9819	9818	9824	9
9820	9819	9826	9828	9
9819	9820	9817	9827	9
9819	9818	9815	9821	9
9818	9819	9820	9825	9
9818	9819	9826	9828	9
9818	9815	9816	9823	9
9818	9815	9821	9822	9
9825	9820	9819	9826	9
9824	9818	9819	9826	9
9821	9815	9816	9823	9
9821	9815	9818	9824	9
9823	9816	9817	9827	9
9825	9820	9817	9827	9
9844	9845	9846	9849	9
9844	9845	9846	9856	9
9844	9847	9848	9849	9
9844	9847	9848	9855	9
9845	9846	9849	9848	9
9845	9846	9849	9854	9
9845	9846	9856	9858	9
9845	9844	9847	9848	9
9845	9844	9847	9853	9
9845	9844	9850	9851	9
9846	9845	9844	9847	9
9846	9845	9844	9850	9
9846	9849	9848	9847	9
9846	9849	9848	9855	9
9849	9846	9845	9852	9
9849	9846	9856	9858	9
9849	9848	9847	9853	9
9849	9848	9855	9857	9
9848	9849	9846	9856	9
9848	9847	9844	9850	9
9847	9848	9849	9854	9
9847	9848	9855	9857	9
9847	9844	9845	9852	9
9847	9844	9850	9851	9
9854	9849	9848	9855	9
9853	9847	9848	9855	9
9850	9844	9845	9852	9
9850	9844	9847	9853	9
9852	9845	9846	9856	9
9854	9849	9846	9856	9
9873	9876	9877	9878	9
9873	9876	9877	9884	9
9873	9874	9875	9878	9
9873	9874	9875	9885	9
9876	9877	9878	9875	9
9876	9877	9878	9883	9
9876	9877	9884	9886	9
9876	9873	9874	9875	9
9876	9873	9874	9881	9
9876	9873	9879	9880	9
9877	9876	9873	9874	9
9877	9876	9873	9879	9
9877	9878	9875	9874	9
9877	9878	9875	9885	9
9878	9877	9876	9882	9
9878	9877	9884	9886	9
9878	9875	9874	9881	9
9878	9875	9885	9887	9
9875	9878	9877	9884	9
9875	9874	9873	9879	9
9874	9875	9878	9883	9
9874	9875	9885	9887	9
9874	9873	9876	9882	9
9874	9873	9879	9880	9
9883	9878	9875	9885	9
9881	9874	9875	9885	9
9879	9873	9876	9882	9
9879	9873	9874	9881	9
9882	9876	9877	9884	9
9883	9878	9877	9884	9
9888	9891	9892	9893	9
9888	9891	9892	9899	9
9888	9889	9890	9893	9
9888	9889	9890	9900	9
9891	9892	9893	9890	9
9891	9892	9893	9898	9
9891	9892	9899	9901	9
9891	9888	9889	9890	9
9891	9888	9889	9896	9
9891	9888	9894	9895	9
9892	9891	9888	9889	9
9892	9891	9888	9894	9
9892	9893	9890	9889	9
9892	9893	9890	9900	9
9893	9892	9891	9897	9
9893	9892	9899	9901	9
9893	9890	9889	9896	9
9893	9890	9900	9902	9
9890	9893	9892	9899	9
9890	9889	9888	9894	9
9889	9890	9893	9898	9
9889	9890	9900	9902	9
9889	9888	9891	9897	9
9889	9888	9894	9895	9
9898	9893	9890	9900	9
9896	9889	9890	9900	9
9894	9888	9891	9897	9
9894	9888	9889	9896	9
9897	9891	9892	9899	9
9898	9893	9892	9899	9
2345	2346	2347	2350	9
2345	2346	2347	2357	9
2345	2348	2349	2350	9
2345	2348	2349	2356	9
2346	2347	2350	2349	9
2346	2347	2350	2355	9
2346	2347	2357	2359	9
2346	2347	2357	2360	9
2346	2345	2348	2349	9
2346	2345	2348	2354	9
2346	2345	2351	2352	9
2347	2346	2345	2348	9
2347	2346	2345	2351	9
2347	2350	2349	2348	9
2347	2350	2349	2356	9
2347	2357	2360	2361	9
2350	2347	2346	2353	9
2350	2347	2357	2359	9
2350	2347	2357	2360	9
2350	2349	2348	2354	9
2350	2349	2356	2358	9
2349	2350	2347	2357	9
2349	2348	2345	2351	9
2348	2349	2350	2355	9
2348	2349	2356	2358	9
2348	2345	2346	2353	9
2348	2345	2351	2352	9
2355	2350	2349	2356	9
2354	2348	2349	2356	9
2351	2345	2346	2353	9
2351	2345	2348	2354	9
2353	2346	2347	2357	9
2355	2350	2347	2357	9
2359	2357	2360	2361	9
9917	9918	9919	9922	9
9917	9918	9919	9929	9
9917	9920	9921	9922	9
9917	9920	9921	9928	9
9918	9919	9922	9921	9
9918	9919	9922	9927	9
9918	9919	9929	9931	9
9918	9917	9920	9921	9
9918	9917	9920	9926	9
9918	9917	9923	9924	9
9919	9918	9917	9920	9
9919	9918	9917	9923	9
9919	9922	9921	9920	9
9919	9922	9921	9928	9
9922	9919	9918	9925	9
9922	9919	9929	9931	9
9922	9921	9920	9926	9
9922	9921	9928	9930	9
9921	9922	9919	9929	9
9921	9920	9917	9923	9
9920	9921	9922	9927	9
9920	9921	9928	9930	9
9920	9917	9918	9925	9
9920	9917	9923	9924	9
9927	9922	9921	9928	9
9926	9920	9921	9928	9
9923	9917	9918	9925	9
9923	9917	9920	9926	9
9925	9918	9919	9929	9
9927	9922	9919	9929	9
9932	9935	9936	9937	9
9932	9935	9936	9943	9
9932	9933	9934	9937	9
9932	9933	9934	9944	9
9934	9937	9936	9935	9
9935	9936	9937	9942	9
9935	9936	9943	9945	9
9934	9933	9932	9935	9
9935	9932	9933	9940	9
9935	9932	9938	9939	9
9933	9932	9935	9936	9
9936	9935	9932	9938	9
9933	9934	9937	9936	9
9936	9937	9934	9944	9
9937	9936	9935	9941	9
9937	9936	9943	9945	9
9937	9934	9933	9940	9
9937	9934	9944	9946	9
9934	9937	9936	9943	9
9934	9933	9932	9938	9
9933	9934	9937	9942	9
9933	9934	9944	9946	9
9933	9932	9935	9941	9
9933	9932	9938	9939	9
9942	9937	9934	9944	9
9940	9933	9934	9944	9
9938	9932	9935	9941	9
9938	9932	9933	9940	9
9941	9935	9936	9943	9
9942	9937	9936	9943	9
264	265	260	261	9
264	265	260	258	9
264	263	262	261	9
264	263	262	268	9
262	261	260	265	9
265	260	261	272	9
265	260	258	259	9
265	260	258	257	9
262	263	264	265	9
265	264	263	273	9
265	264	266	267	9
263	264	265	260	9
260	265	264	266	9
263	262	261	260	9
260	261	262	268	9
260	258	257	271	9
261	260	265	274	9
261	260	258	259	9
261	260	258	257	9
261	262	263	273	9
261	262	268	269	9
261	262	268	270	9
262	261	260	258	9
262	263	264	266	9
263	262	261	272	9
263	262	268	269	9
263	262	268	270	9
263	264	265	274	9
263	264	266	267	9
272	261	262	268	9
273	263	262	268	9
266	264	265	274	9
266	264	263	273	9
274	265	260	258	9
272	261	260	258	9
259	258	257	271	9
9961	9962	9963	9966	9
9961	9962	9963	9973	9
9961	9964	9965	9966	9
9961	9964	9965	9972	9
9962	9963	9966	9965	9
9962	9963	9966	9971	9
9962	9963	9973	9975	9
9962	9961	9964	9965	9
9962	9961	9964	9970	9
9962	9961	9967	9968	9
9963	9962	9961	9964	9
9963	9962	9961	9967	9
9963	9966	9965	9964	9
9963	9966	9965	9972	9
9966	9963	9962	9969	9
9966	9963	9973	9975	9
9966	9965	9964	9970	9
9966	9965	9972	9974	9
9965	9966	9963	9973	9
9965	9964	9961	9967	9
9964	9965	9966	9971	9
9964	9965	9972	9974	9
9964	9961	9962	9969	9
9964	9961	9967	9968	9
9971	9966	9965	9972	9
9970	9964	9965	9972	9
9967	9961	9962	9969	9
9967	9961	9964	9970	9
9969	9962	9963	9973	9
9971	9966	9963	9973	9
9990	9991	9992	9995	9
9990	9991	9992	10002	9
9990	9993	9994	9995	9
9990	9993	9994	10001	9
9991	9992	9995	9994	9
9991	9992	9995	10000	9
9991	9992	10002	10004	9
9991	9990	9993	9994	9
9991	9990	9993	9999	9
9991	9990	9996	9997	9
9992	9991	9990	9993	9
9992	9991	9990	9996	9
9992	9995	9994	9993	9
9992	9995	9994	10001	9
9995	9992	9991	9998	9
9995	9992	10002	10004	9
9995	9994	9993	9999	9
9995	9994	10001	10003	9
9994	9995	9992	10002	9
9994	9993	9990	9996	9
9993	9994	9995	10000	9
9993	9994	10001	10003	9
9993	9990	9991	9998	9
9993	9990	9996	9997	9
10000	9995	9994	10001	9
9999	9993	9994	10001	9
9996	9990	9991	9998	9
9996	9990	9993	9999	9
9998	9991	9992	10002	9
10000	9995	9992	10002	9
10019	10022	10023	10024	9
10019	10022	10023	10030	9
10019	10020	10021	10024	9
10019	10020	10021	10031	9
10021	10024	10023	10022	9
10022	10023	10024	10029	9
10022	10023	10030	10032	9
10021	10020	10019	10022	9
10022	10019	10020	10027	9
10022	10019	10025	10026	9
10020	10019	10022	10023	9
10023	10022	10019	10025	9
10020	10021	10024	10023	9
10023	10024	10021	10031	9
10024	10023	10022	10028	9
10024	10023	10030	10032	9
10024	10021	10020	10027	9
10024	10021	10031	10033	9
10021	10024	10023	10030	9
10021	10020	10019	10025	9
10020	10021	10024	10029	9
10020	10021	10031	10033	9
10020	10019	10022	10028	9
10020	10019	10025	10026	9
10029	10024	10021	10031	9
10027	10020	10021	10031	9
10025	10019	10022	10028	9
10025	10019	10020	10027	9
10028	10022	10023	10030	9
10029	10024	10023	10030	9
10048	10051	10052	10053	9
10048	10051	10052	10059	9
10048	10049	10050	10053	9
10048	10049	10050	10060	9
10050	10053	10052	10051	9
10051	10052	10053	10058	9
10051	10052	10059	10061	9
10050	10049	10048	10051	9
10051	10048	10049	10056	9
10051	10048	10054	10055	9
10049	10048	10051	10052	9
10052	10051	10048	10054	9
10049	10050	10053	10052	9
10052	10053	10050	10060	9
10053	10052	10051	10057	9
10053	10052	10059	10061	9
10053	10050	10049	10056	9
10053	10050	10060	10062	9
10050	10053	10052	10059	9
10050	10049	10048	10054	9
10049	10050	10053	10058	9
10049	10050	10060	10062	9
10049	10048	10051	10057	9
10049	10048	10054	10055	9
10058	10053	10050	10060	9
10056	10049	10050	10060	9
10054	10048	10051	10057	9
10054	10048	10049	10056	9
10057	10051	10052	10059	9
10058	10053	10052	10059	9
10079	10078	10077	10080	9
10079	10078	10077	10083	9
10079	10082	10081	10080	9
10079	10082	10081	10088	9
10081	10080	10077	10078	9
10078	10077	10080	10086	9
10078	10077	10083	10084	9
10081	10082	10079	10078	9
10078	10079	10082	10087	9
10078	10079	10089	10091	9
10082	10079	10078	10077	9
10077	10078	10079	10089	9
10082	10081	10080	10077	9
10077	10080	10081	10088	9
10080	10077	10078	10085	9
10080	10077	10083	10084	9
10080	10081	10082	10087	9
10080	10081	10088	10090	9
10081	10080	10077	10083	9
10081	10082	10079	10089	9
10082	10081	10080	10086	9
10082	10081	10088	10090	9
10082	10079	10078	10085	9
10082	10079	10089	10091	9
10086	10080	10081	10088	9
10087	10082	10081	10088	9
10089	10079	10078	10085	9
10089	10079	10082	10087	9
10085	10078	10077	10083	9
10086	10080	10077	10083	9
10106	10107	10108	10111	9
10106	10107	10108	10118	9
10106	10109	10110	10111	9
10106	10109	10110	10117	9
10110	10111	10108	10107	9
10107	10108	10111	10116	9
10107	10108	10118	10120	9
10110	10109	10106	10107	9
10107	10106	10109	10115	9
10107	10106	10112	10113	9
10109	10106	10107	10108	9
10108	10107	10106	10112	9
10109	10110	10111	10108	9
10108	10111	10110	10117	9
10111	10108	10107	10114	9
10111	10108	10118	10120	9
10111	10110	10109	10115	9
10111	10110	10117	10119	9
10110	10111	10108	10118	9
10110	10109	10106	10112	9
10109	10110	10111	10116	9
10109	10110	10117	10119	9
10109	10106	10107	10114	9
10109	10106	10112	10113	9
10116	10111	10110	10117	9
10115	10109	10110	10117	9
10112	10106	10107	10114	9
10112	10106	10109	10115	9
10114	10107	10108	10118	9
10116	10111	10108	10118	9
10139	10140	10137	10136	9
10139	10140	10137	10147	9
10139	10138	10135	10136	9
10139	10138	10135	10141	9
10140	10137	10136	10135	9
10140	10137	10136	10143	9
10140	10137	10147	10149	9
10140	10139	10138	10135	9
10140	10139	10138	10144	9
10140	10139	10146	10148	9
10137	10140	10139	10138	9
10137	10140	10139	10146	9
10137	10136	10135	10138	9
10137	10136	10135	10141	9
10136	10137	10140	10145	9
10136	10137	10147	10149	9
10136	10135	10138	10144	9
10136	10135	10141	10142	9
10135	10136	10137	10147	9
10135	10138	10139	10146	9
10138	10135	10136	10143	9
10138	10135	10141	10142	9
10138	10139	10140	10145	9
10138	10139	10146	10148	9
10143	10136	10135	10141	9
10144	10138	10135	10141	9
10146	10139	10140	10145	9
10146	10139	10138	10144	9
10145	10140	10137	10147	9
10143	10136	10137	10147	9
10164	10165	10166	10169	9
10164	10165	10166	10176	9
10164	10167	10168	10169	9
10164	10167	10168	10175	9
10165	10166	10169	10168	9
10165	10166	10169	10174	9
10165	10166	10176	10178	9
10165	10164	10167	10168	9
10165	10164	10167	10173	9
10165	10164	10170	10171	9
10166	10165	10164	10167	9
10166	10165	10164	10170	9
10166	10169	10168	10167	9
10166	10169	10168	10175	9
10169	10166	10165	10172	9
10169	10166	10176	10178	9
10169	10168	10167	10173	9
10169	10168	10175	10177	9
10168	10169	10166	10176	9
10168	10167	10164	10170	9
10167	10168	10169	10174	9
10167	10168	10175	10177	9
10167	10164	10165	10172	9
10167	10164	10170	10171	9
10174	10169	10168	10175	9
10173	10167	10168	10175	9
10170	10164	10165	10172	9
10170	10164	10167	10173	9
10172	10165	10166	10176	9
10174	10169	10166	10176	9
10193	10194	10195	10198	9
10193	10194	10195	10205	9
10193	10196	10197	10198	9
10193	10196	10197	10204	9
10194	10195	10198	10197	9
10194	10195	10198	10203	9
10194	10195	10205	10207	9
10194	10193	10196	10197	9
10194	10193	10196	10202	9
10194	10193	10199	10200	9
10195	10194	10193	10196	9
10195	10194	10193	10199	9
10195	10198	10197	10196	9
10195	10198	10197	10204	9
10198	10195	10194	10201	9
10198	10195	10205	10207	9
10198	10197	10196	10202	9
10198	10197	10204	10206	9
10197	10198	10195	10205	9
10197	10196	10193	10199	9
10196	10197	10198	10203	9
10196	10197	10204	10206	9
10196	10193	10194	10201	9
10196	10193	10199	10200	9
10203	10198	10197	10204	9
10202	10196	10197	10204	9
10199	10193	10194	10201	9
10199	10193	10196	10202	9
10201	10194	10195	10205	9
10203	10198	10195	10205	9
10222	10223	10224	10227	9
10222	10223	10224	10234	9
10222	10225	10226	10227	9
10222	10225	10226	10233	9
10223	10224	10227	10226	9
10223	10224	10227	10232	9
10223	10224	10234	10236	9
10223	10222	10225	10226	9
10223	10222	10225	10231	9
10223	10222	10228	10229	9
10224	10223	10222	10225	9
10224	10223	10222	10228	9
10224	10227	10226	10225	9
10224	10227	10226	10233	9
10227	10224	10223	10230	9
10227	10224	10234	10236	9
10227	10226	10225	10231	9
10227	10226	10233	10235	9
10226	10227	10224	10234	9
10226	10225	10222	10228	9
10225	10226	10227	10232	9
10225	10226	10233	10235	9
10225	10222	10223	10230	9
10225	10222	10228	10229	9
10232	10227	10226	10233	9
10231	10225	10226	10233	9
10228	10222	10223	10230	9
10228	10222	10225	10231	9
10230	10223	10224	10234	9
10232	10227	10224	10234	9
10251	10254	10255	10256	9
10251	10254	10255	10262	9
10251	10252	10253	10256	9
10251	10252	10253	10263	9
10253	10256	10255	10254	9
10254	10255	10256	10261	9
10254	10255	10262	10264	9
10253	10252	10251	10254	9
10254	10251	10252	10259	9
10254	10251	10257	10258	9
10252	10251	10254	10255	9
10255	10254	10251	10257	9
10252	10253	10256	10255	9
10255	10256	10253	10263	9
10256	10255	10254	10260	9
10256	10255	10262	10264	9
10256	10253	10252	10259	9
10256	10253	10263	10265	9
10253	10256	10255	10262	9
10253	10252	10251	10257	9
10252	10253	10256	10261	9
10252	10253	10263	10265	9
10252	10251	10254	10260	9
10252	10251	10257	10258	9
10261	10256	10253	10263	9
10259	10252	10253	10263	9
10257	10251	10254	10260	9
10257	10251	10252	10259	9
10260	10254	10255	10262	9
10261	10256	10255	10262	9
10266	10269	10270	10271	9
10266	10269	10270	10277	9
10266	10267	10268	10271	9
10266	10267	10268	10278	9
10268	10271	10270	10269	9
10269	10270	10271	10276	9
10269	10270	10277	10279	9
10268	10267	10266	10269	9
10269	10266	10267	10274	9
10269	10266	10272	10273	9
10267	10266	10269	10270	9
10270	10269	10266	10272	9
10267	10268	10271	10270	9
10270	10271	10268	10278	9
10271	10270	10269	10275	9
10271	10270	10277	10279	9
10271	10268	10267	10274	9
10271	10268	10278	10280	9
10268	10271	10270	10277	9
10268	10267	10266	10272	9
10267	10268	10271	10276	9
10267	10268	10278	10280	9
10267	10266	10269	10275	9
10267	10266	10272	10273	9
10276	10271	10268	10278	9
10274	10267	10268	10278	9
10272	10266	10269	10275	9
10272	10266	10267	10274	9
10275	10269	10270	10277	9
10276	10271	10270	10277	9
10295	10296	10297	10300	9
10295	10296	10297	10307	9
10295	10298	10299	10300	9
10295	10298	10299	10306	9
10299	10300	10297	10296	9
10296	10297	10300	10305	9
10296	10297	10307	10309	9
10299	10298	10295	10296	9
10296	10295	10298	10304	9
10296	10295	10301	10302	9
10298	10295	10296	10297	9
10297	10296	10295	10301	9
10298	10299	10300	10297	9
10297	10300	10299	10306	9
10300	10297	10296	10303	9
10300	10297	10307	10309	9
10300	10299	10298	10304	9
10300	10299	10306	10308	9
10299	10300	10297	10307	9
10299	10298	10295	10301	9
10298	10299	10300	10305	9
10298	10299	10306	10308	9
10298	10295	10296	10303	9
10298	10295	10301	10302	9
10305	10300	10299	10306	9
10304	10298	10299	10306	9
10301	10295	10296	10303	9
10301	10295	10298	10304	9
10303	10296	10297	10307	9
10305	10300	10297	10307	9
10324	10325	10326	10329	9
10324	10325	10326	10336	9
10324	10327	10328	10329	9
10324	10327	10328	10335	9
10328	10329	10326	10325	9
10325	10326	10329	10334	9
10325	10326	10336	10338	9
10328	10327	10324	10325	9
10325	10324	10327	10333	9
10325	10324	10330	10331	9
10327	10324	10325	10326	9
10326	10325	10324	10330	9
10327	10328	10329	10326	9
10326	10329	10328	10335	9
10329	10326	10325	10332	9
10329	10326	10336	10338	9
10329	10328	10327	10333	9
10329	10328	10335	10337	9
10328	10329	10326	10336	9
10328	10327	10324	10330	9
10327	10328	10329	10334	9
10327	10328	10335	10337	9
10327	10324	10325	10332	9
10327	10324	10330	10331	9
10334	10329	10328	10335	9
10333	10327	10328	10335	9
10330	10324	10325	10332	9
10330	10324	10327	10333	9
10332	10325	10326	10336	9
10334	10329	10326	10336	9
10353	10354	10355	10358	9
10353	10354	10355	10365	9
10353	10356	10357	10358	9
10353	10356	10357	10364	9
10354	10355	10358	10357	9
10354	10355	10358	10363	9
10354	10355	10365	10367	9
10354	10353	10356	10357	9
10354	10353	10356	10362	9
10354	10353	10359	10360	9
10355	10354	10353	10356	9
10355	10354	10353	10359	9
10355	10358	10357	10356	9
10355	10358	10357	10364	9
10358	10355	10354	10361	9
10358	10355	10365	10367	9
10358	10357	10356	10362	9
10358	10357	10364	10366	9
10357	10358	10355	10365	9
10357	10356	10353	10359	9
10356	10357	10358	10363	9
10356	10357	10364	10366	9
10356	10353	10354	10361	9
10356	10353	10359	10360	9
10363	10358	10357	10364	9
10362	10356	10357	10364	9
10359	10353	10354	10361	9
10359	10353	10356	10362	9
10361	10354	10355	10365	9
10363	10358	10355	10365	9
2376	2377	2378	2381	9
2376	2377	2378	2388	9
2376	2379	2380	2381	9
2376	2379	2380	2387	9
2377	2378	2381	2380	9
2377	2378	2381	2386	9
2377	2378	2388	2390	9
2377	2378	2388	2391	9
2377	2376	2379	2380	9
2377	2376	2379	2385	9
2377	2376	2382	2383	9
2378	2377	2376	2379	9
2378	2377	2376	2382	9
2378	2381	2380	2379	9
2378	2381	2380	2387	9
2378	2388	2391	2392	9
2381	2378	2377	2384	9
2381	2378	2388	2390	9
2381	2378	2388	2391	9
2381	2380	2379	2385	9
2381	2380	2387	2389	9
2380	2381	2378	2388	9
2380	2379	2376	2382	9
2379	2380	2381	2386	9
2379	2380	2387	2389	9
2379	2376	2377	2384	9
2379	2376	2382	2383	9
2386	2381	2380	2387	9
2385	2379	2380	2387	9
2382	2376	2377	2384	9
2382	2376	2379	2385	9
2384	2377	2378	2388	9
2386	2381	2378	2388	9
2390	2388	2391	2392	9
10368	10369	10370	10373	9
10368	10369	10370	10380	9
10368	10371	10372	10373	9
10368	10371	10372	10379	9
10369	10370	10373	10372	9
10369	10370	10373	10378	9
10369	10370	10380	10382	9
10369	10368	10371	10372	9
10369	10368	10371	10377	9
10369	10368	10374	10375	9
10370	10369	10368	10371	9
10370	10369	10368	10374	9
10370	10373	10372	10371	9
10370	10373	10372	10379	9
10373	10370	10369	10376	9
10373	10370	10380	10382	9
10373	10372	10371	10377	9
10373	10372	10379	10381	9
10372	10373	10370	10380	9
10372	10371	10368	10374	9
10371	10372	10373	10378	9
10371	10372	10379	10381	9
10371	10368	10369	10376	9
10371	10368	10374	10375	9
10378	10373	10372	10379	9
10377	10371	10372	10379	9
10374	10368	10369	10376	9
10374	10368	10371	10377	9
10376	10369	10370	10380	9
10378	10373	10370	10380	9
10383	10384	10385	10388	9
10383	10384	10385	10395	9
10383	10386	10387	10388	9
10383	10386	10387	10394	9
10384	10385	10388	10387	9
10384	10385	10388	10393	9
10384	10385	10395	10397	9
10384	10383	10386	10387	9
10384	10383	10386	10392	9
10384	10383	10389	10390	9
10385	10384	10383	10386	9
10385	10384	10383	10389	9
10385	10388	10387	10386	9
10385	10388	10387	10394	9
10388	10385	10384	10391	9
10388	10385	10395	10397	9
10388	10387	10386	10392	9
10388	10387	10394	10396	9
10387	10388	10385	10395	9
10387	10386	10383	10389	9
10386	10387	10388	10393	9
10386	10387	10394	10396	9
10386	10383	10384	10391	9
10386	10383	10389	10390	9
10393	10388	10387	10394	9
10392	10386	10387	10394	9
10389	10383	10384	10391	9
10389	10383	10386	10392	9
10391	10384	10385	10395	9
10393	10388	10385	10395	9
10398	10401	10402	10403	9
10398	10401	10402	10409	9
10398	10399	10400	10403	9
10398	10399	10400	10410	9
10400	10403	10402	10401	9
10401	10402	10403	10408	9
10401	10402	10409	10411	9
10400	10399	10398	10401	9
10401	10398	10399	10406	9
10401	10398	10404	10405	9
10399	10398	10401	10402	9
10402	10401	10398	10404	9
10399	10400	10403	10402	9
10402	10403	10400	10410	9
10403	10402	10401	10407	9
10403	10402	10409	10411	9
10403	10400	10399	10406	9
10403	10400	10410	10412	9
10400	10403	10402	10409	9
10400	10399	10398	10404	9
10399	10400	10403	10408	9
10399	10400	10410	10412	9
10399	10398	10401	10407	9
10399	10398	10404	10405	9
10408	10403	10400	10410	9
10406	10399	10400	10410	9
10404	10398	10401	10407	9
10404	10398	10399	10406	9
10407	10401	10402	10409	9
10408	10403	10402	10409	9
10427	10430	10431	10432	9
10427	10430	10431	10438	9
10427	10428	10429	10432	9
10427	10428	10429	10439	9
10429	10432	10431	10430	9
10430	10431	10432	10437	9
10430	10431	10438	10440	9
10429	10428	10427	10430	9
10430	10427	10428	10435	9
10430	10427	10433	10434	9
10428	10427	10430	10431	9
10431	10430	10427	10433	9
10428	10429	10432	10431	9
10431	10432	10429	10439	9
10432	10431	10430	10436	9
10432	10431	10438	10440	9
10432	10429	10428	10435	9
10432	10429	10439	10441	9
10429	10432	10431	10438	9
10429	10428	10427	10433	9
10428	10429	10432	10437	9
10428	10429	10439	10441	9
10428	10427	10430	10436	9
10428	10427	10433	10434	9
10437	10432	10429	10439	9
10435	10428	10429	10439	9
10433	10427	10430	10436	9
10433	10427	10428	10435	9
10436	10430	10431	10438	9
10437	10432	10431	10438	9
10442	10445	10446	10447	9
10442	10445	10446	10453	9
10442	10443	10444	10447	9
10442	10443	10444	10454	9
10444	10447	10446	10445	9
10445	10446	10447	10452	9
10445	10446	10453	10455	9
10444	10443	10442	10445	9
10445	10442	10443	10450	9
10445	10442	10448	10449	9
10443	10442	10445	10446	9
10446	10445	10442	10448	9
10443	10444	10447	10446	9
10446	10447	10444	10454	9
10447	10446	10445	10451	9
10447	10446	10453	10455	9
10447	10444	10443	10450	9
10447	10444	10454	10456	9
10444	10447	10446	10453	9
10444	10443	10442	10448	9
10443	10444	10447	10452	9
10443	10444	10454	10456	9
10443	10442	10445	10451	9
10443	10442	10448	10449	9
10452	10447	10444	10454	9
10450	10443	10444	10454	9
10448	10442	10445	10451	9
10448	10442	10443	10450	9
10451	10445	10446	10453	9
10452	10447	10446	10453	9
10475	10476	10473	10472	9
10475	10476	10473	10483	9
10475	10474	10471	10472	9
10475	10474	10471	10477	9
10471	10472	10473	10476	9
10476	10473	10472	10479	9
10476	10473	10483	10485	9
10471	10474	10475	10476	9
10476	10475	10474	10480	9
10476	10475	10482	10484	9
10474	10475	10476	10473	9
10473	10476	10475	10482	9
10474	10471	10472	10473	9
10473	10472	10471	10477	9
10472	10473	10476	10481	9
10472	10473	10483	10485	9
10472	10471	10474	10480	9
10472	10471	10477	10478	9
10471	10472	10473	10483	9
10471	10474	10475	10482	9
10474	10471	10472	10479	9
10474	10471	10477	10478	9
10474	10475	10476	10481	9
10474	10475	10482	10484	9
10479	10472	10471	10477	9
10480	10474	10471	10477	9
10482	10475	10476	10481	9
10482	10475	10474	10480	9
10481	10476	10473	10483	9
10479	10472	10473	10483	9
10486	10489	10490	10491	9
10486	10489	10490	10497	9
10486	10487	10488	10491	9
10486	10487	10488	10498	9
10489	10490	10491	10488	9
10489	10490	10491	10496	9
10489	10490	10497	10499	9
10489	10486	10487	10488	9
10489	10486	10487	10494	9
10489	10486	10492	10493	9
10490	10489	10486	10487	9
10490	10489	10486	10492	9
10490	10491	10488	10487	9
10490	10491	10488	10498	9
10491	10490	10489	10495	9
10491	10490	10497	10499	9
10491	10488	10487	10494	9
10491	10488	10498	10500	9
10488	10491	10490	10497	9
10488	10487	10486	10492	9
10487	10488	10491	10496	9
10487	10488	10498	10500	9
10487	10486	10489	10495	9
10487	10486	10492	10493	9
10496	10491	10488	10498	9
10494	10487	10488	10498	9
10492	10486	10489	10495	9
10492	10486	10487	10494	9
10495	10489	10490	10497	9
10496	10491	10490	10497	9
10515	10516	10517	10520	9
10515	10516	10517	10527	9
10515	10518	10519	10520	9
10515	10518	10519	10526	9
10516	10517	10520	10519	9
10516	10517	10520	10525	9
10516	10517	10527	10529	9
10516	10515	10518	10519	9
10516	10515	10518	10524	9
10516	10515	10521	10522	9
10517	10516	10515	10518	9
10517	10516	10515	10521	9
10517	10520	10519	10518	9
10517	10520	10519	10526	9
10520	10517	10516	10523	9
10520	10517	10527	10529	9
10520	10519	10518	10524	9
10520	10519	10526	10528	9
10519	10520	10517	10527	9
10519	10518	10515	10521	9
10518	10519	10520	10525	9
10518	10519	10526	10528	9
10518	10515	10516	10523	9
10518	10515	10521	10522	9
10525	10520	10519	10526	9
10524	10518	10519	10526	9
10521	10515	10516	10523	9
10521	10515	10518	10524	9
10523	10516	10517	10527	9
10525	10520	10517	10527	9
10530	10531	10532	10535	9
10530	10531	10532	10542	9
10530	10533	10534	10535	9
10530	10533	10534	10541	9
10531	10532	10535	10534	9
10531	10532	10535	10540	9
10531	10532	10542	10544	9
10531	10530	10533	10534	9
10531	10530	10533	10539	9
10531	10530	10536	10537	9
10532	10531	10530	10533	9
10532	10531	10530	10536	9
10532	10535	10534	10533	9
10532	10535	10534	10541	9
10535	10532	10531	10538	9
10535	10532	10542	10544	9
10535	10534	10533	10539	9
10535	10534	10541	10543	9
10534	10535	10532	10542	9
10534	10533	10530	10536	9
10533	10534	10535	10540	9
10533	10534	10541	10543	9
10533	10530	10531	10538	9
10533	10530	10536	10537	9
10540	10535	10534	10541	9
10539	10533	10534	10541	9
10536	10530	10531	10538	9
10536	10530	10533	10539	9
10538	10531	10532	10542	9
10540	10535	10532	10542	9
2407	2408	2409	2412	9
2407	2408	2409	2419	9
2407	2410	2411	2412	9
2407	2410	2411	2418	9
2408	2409	2412	2411	9
2408	2409	2412	2417	9
2408	2409	2419	2421	9
2408	2409	2419	2422	9
2408	2407	2410	2411	9
2408	2407	2410	2416	9
2408	2407	2413	2414	9
2409	2408	2407	2410	9
2409	2408	2407	2413	9
2409	2412	2411	2410	9
2409	2412	2411	2418	9
2409	2419	2422	2423	9
2412	2409	2408	2415	9
2412	2409	2419	2421	9
2412	2409	2419	2422	9
2412	2411	2410	2416	9
2412	2411	2418	2420	9
2411	2412	2409	2419	9
2411	2410	2407	2413	9
2410	2411	2412	2417	9
2410	2411	2418	2420	9
2410	2407	2408	2415	9
2410	2407	2413	2414	9
2417	2412	2411	2418	9
2416	2410	2411	2418	9
2413	2407	2408	2415	9
2413	2407	2410	2416	9
2415	2408	2409	2419	9
2417	2412	2409	2419	9
2421	2419	2422	2423	9
10545	10546	10547	10550	9
10545	10546	10547	10557	9
10545	10548	10549	10550	9
10545	10548	10549	10556	9
10546	10547	10550	10549	9
10546	10547	10550	10555	9
10546	10547	10557	10559	9
10546	10545	10548	10549	9
10546	10545	10548	10554	9
10546	10545	10551	10552	9
10547	10546	10545	10548	9
10547	10546	10545	10551	9
10547	10550	10549	10548	9
10547	10550	10549	10556	9
10550	10547	10546	10553	9
10550	10547	10557	10559	9
10550	10549	10548	10554	9
10550	10549	10556	10558	9
10549	10550	10547	10557	9
10549	10548	10545	10551	9
10548	10549	10550	10555	9
10548	10549	10556	10558	9
10548	10545	10546	10553	9
10548	10545	10551	10552	9
10555	10550	10549	10556	9
10554	10548	10549	10556	9
10551	10545	10546	10553	9
10551	10545	10548	10554	9
10553	10546	10547	10557	9
10555	10550	10547	10557	9
2438	2439	2440	2443	9
2438	2439	2440	2450	9
2438	2441	2442	2443	9
2438	2441	2442	2449	9
2439	2440	2443	2442	9
2439	2440	2443	2448	9
2439	2440	2450	2452	9
2439	2440	2450	2453	9
2439	2438	2441	2442	9
2439	2438	2441	2447	9
2439	2438	2444	2445	9
2440	2439	2438	2441	9
2440	2439	2438	2444	9
2440	2443	2442	2441	9
2440	2443	2442	2449	9
2440	2450	2453	2454	9
2443	2440	2439	2446	9
2443	2440	2450	2452	9
2443	2440	2450	2453	9
2443	2442	2441	2447	9
2443	2442	2449	2451	9
2442	2443	2440	2450	9
2442	2441	2438	2444	9
2441	2442	2443	2448	9
2441	2442	2449	2451	9
2441	2438	2439	2446	9
2441	2438	2444	2445	9
2448	2443	2442	2449	9
2447	2441	2442	2449	9
2444	2438	2439	2446	9
2444	2438	2441	2447	9
2446	2439	2440	2450	9
2448	2443	2440	2450	9
2452	2450	2453	2454	9
10574	10575	10576	10579	9
10574	10575	10576	10586	9
10574	10577	10578	10579	9
10574	10577	10578	10585	9
10575	10576	10579	10578	9
10575	10576	10579	10584	9
10575	10576	10586	10588	9
10575	10574	10577	10578	9
10575	10574	10577	10583	9
10575	10574	10580	10581	9
10576	10575	10574	10577	9
10576	10575	10574	10580	9
10576	10579	10578	10577	9
10576	10579	10578	10585	9
10579	10576	10575	10582	9
10579	10576	10586	10588	9
10579	10578	10577	10583	9
10579	10578	10585	10587	9
10578	10579	10576	10586	9
10578	10577	10574	10580	9
10577	10578	10579	10584	9
10577	10578	10585	10587	9
10577	10574	10575	10582	9
10577	10574	10580	10581	9
10584	10579	10578	10585	9
10583	10577	10578	10585	9
10580	10574	10575	10582	9
10580	10574	10577	10583	9
10582	10575	10576	10586	9
10584	10579	10576	10586	9
2469	2470	2471	2474	9
2469	2470	2471	2481	9
2469	2472	2473	2474	9
2469	2472	2473	2480	9
2470	2471	2474	2473	9
2470	2471	2474	2479	9
2470	2471	2481	2483	9
2470	2471	2481	2484	9
2470	2469	2472	2473	9
2470	2469	2472	2478	9
2470	2469	2475	2476	9
2471	2470	2469	2472	9
2471	2470	2469	2475	9
2471	2474	2473	2472	9
2471	2474	2473	2480	9
2471	2481	2484	2485	9
2474	2471	2470	2477	9
2474	2471	2481	2483	9
2474	2471	2481	2484	9
2474	2473	2472	2478	9
2474	2473	2480	2482	9
2473	2474	2471	2481	9
2473	2472	2469	2475	9
2472	2473	2474	2479	9
2472	2473	2480	2482	9
2472	2469	2470	2477	9
2472	2469	2475	2476	9
2479	2474	2473	2480	9
2478	2472	2473	2480	9
2475	2469	2470	2477	9
2475	2469	2472	2478	9
2477	2470	2471	2481	9
2479	2474	2471	2481	9
2483	2481	2484	2485	9
10605	10604	10603	10606	9
10605	10604	10603	10609	9
10605	10608	10607	10606	9
10605	10608	10607	10614	9
10604	10603	10606	10607	9
10604	10603	10606	10612	9
10604	10603	10609	10610	9
10604	10605	10608	10607	9
10604	10605	10608	10613	9
10604	10605	10615	10617	9
10603	10604	10605	10608	9
10603	10604	10605	10615	9
10603	10606	10607	10608	9
10603	10606	10607	10614	9
10606	10603	10604	10611	9
10606	10603	10609	10610	9
10606	10607	10608	10613	9
10606	10607	10614	10616	9
10607	10606	10603	10609	9
10607	10608	10605	10615	9
10608	10607	10606	10612	9
10608	10607	10614	10616	9
10608	10605	10604	10611	9
10608	10605	10615	10617	9
10612	10606	10607	10614	9
10613	10608	10607	10614	9
10611	10604	10605	10615	9
10613	10608	10605	10615	9
10609	10603	10604	10611	9
10609	10603	10606	10612	9
10632	10635	10636	10637	9
10632	10635	10636	10643	9
10632	10633	10634	10637	9
10632	10633	10634	10644	9
10634	10637	10636	10635	9
10635	10636	10637	10642	9
10635	10636	10643	10645	9
10634	10633	10632	10635	9
10635	10632	10633	10640	9
10635	10632	10638	10639	9
10633	10632	10635	10636	9
10636	10635	10632	10638	9
10633	10634	10637	10636	9
10636	10637	10634	10644	9
10637	10636	10635	10641	9
10637	10636	10643	10645	9
10637	10634	10633	10640	9
10637	10634	10644	10646	9
10634	10637	10636	10643	9
10634	10633	10632	10638	9
10633	10634	10637	10642	9
10633	10634	10644	10646	9
10633	10632	10635	10641	9
10633	10632	10638	10639	9
10642	10637	10634	10644	9
10640	10633	10634	10644	9
10638	10632	10635	10641	9
10638	10632	10633	10640	9
10641	10635	10636	10643	9
10642	10637	10636	10643	9
10661	10662	10663	10666	9
10661	10662	10663	10673	9
10661	10664	10665	10666	9
10661	10664	10665	10672	9
10665	10666	10663	10662	9
10662	10663	10666	10671	9
10662	10663	10673	10675	9
10665	10664	10661	10662	9
10662	10661	10664	10670	9
10662	10661	10667	10668	9
10664	10661	10662	10663	9
10663	10662	10661	10667	9
10664	10665	10666	10663	9
10663	10666	10665	10672	9
10666	10663	10662	10669	9
10666	10663	10673	10675	9
10666	10665	10664	10670	9
10666	10665	10672	10674	9
10665	10666	10663	10673	9
10665	10664	10661	10667	9
10664	10665	10666	10671	9
10664	10665	10672	10674	9
10664	10661	10662	10669	9
10664	10661	10667	10668	9
10671	10666	10665	10672	9
10670	10664	10665	10672	9
10667	10661	10662	10669	9
10667	10661	10664	10670	9
10669	10662	10663	10673	9
10671	10666	10663	10673	9
2502	2501	2500	2503	9
2502	2501	2500	2506	9
2502	2505	2504	2503	9
2502	2505	2504	2511	9
2502	2512	2515	2516	9
2501	2500	2503	2504	9
2501	2500	2503	2509	9
2501	2500	2506	2507	9
2501	2502	2505	2504	9
2501	2502	2505	2510	9
2501	2502	2512	2514	9
2501	2502	2512	2515	9
2500	2501	2502	2505	9
2500	2501	2502	2512	9
2500	2503	2504	2505	9
2500	2503	2504	2511	9
2503	2500	2501	2508	9
2503	2500	2506	2507	9
2503	2504	2505	2510	9
2503	2504	2511	2513	9
2504	2503	2500	2506	9
2504	2505	2502	2512	9
2505	2504	2503	2509	9
2505	2504	2511	2513	9
2505	2502	2501	2508	9
2505	2502	2512	2514	9
2505	2502	2512	2515	9
2509	2503	2504	2511	9
2510	2505	2504	2511	9
2508	2501	2502	2512	9
2510	2505	2502	2512	9
2506	2500	2501	2508	9
2506	2500	2503	2509	9
2514	2512	2515	2516	9
2531	2532	2533	2536	9
2531	2532	2533	2543	9
2531	2534	2535	2536	9
2531	2534	2535	2542	9
2532	2533	2536	2535	9
2532	2533	2536	2541	9
2532	2533	2543	2545	9
2532	2533	2543	2546	9
2532	2531	2534	2535	9
2532	2531	2534	2540	9
2532	2531	2537	2538	9
2533	2532	2531	2534	9
2533	2532	2531	2537	9
2533	2536	2535	2534	9
2533	2536	2535	2542	9
2533	2543	2546	2547	9
2536	2533	2532	2539	9
2536	2533	2543	2545	9
2536	2533	2543	2546	9
2536	2535	2534	2540	9
2536	2535	2542	2544	9
2535	2536	2533	2543	9
2535	2534	2531	2537	9
2534	2535	2536	2541	9
2534	2535	2542	2544	9
2534	2531	2532	2539	9
2534	2531	2537	2538	9
2541	2536	2535	2542	9
2540	2534	2535	2542	9
2537	2531	2532	2539	9
2537	2531	2534	2540	9
2539	2532	2533	2543	9
2541	2536	2533	2543	9
2545	2543	2546	2547	9
10690	10691	10692	10695	9
10690	10691	10692	10702	9
10690	10693	10694	10695	9
10690	10693	10694	10701	9
10694	10695	10692	10691	9
10691	10692	10695	10700	9
10691	10692	10702	10704	9
10694	10693	10690	10691	9
10691	10690	10693	10699	9
10691	10690	10696	10697	9
10693	10690	10691	10692	9
10692	10691	10690	10696	9
10693	10694	10695	10692	9
10692	10695	10694	10701	9
10695	10692	10691	10698	9
10695	10692	10702	10704	9
10695	10694	10693	10699	9
10695	10694	10701	10703	9
10694	10695	10692	10702	9
10694	10693	10690	10696	9
10693	10694	10695	10700	9
10693	10694	10701	10703	9
10693	10690	10691	10698	9
10693	10690	10696	10697	9
10700	10695	10694	10701	9
10699	10693	10694	10701	9
10696	10690	10691	10698	9
10696	10690	10693	10699	9
10698	10691	10692	10702	9
10700	10695	10692	10702	9
10719	10722	10723	10724	9
10719	10722	10723	10730	9
10719	10720	10721	10724	9
10719	10720	10721	10731	9
10721	10724	10723	10722	9
10722	10723	10724	10729	9
10722	10723	10730	10732	9
10721	10720	10719	10722	9
10722	10719	10720	10727	9
10722	10719	10725	10726	9
10720	10719	10722	10723	9
10723	10722	10719	10725	9
10720	10721	10724	10723	9
10723	10724	10721	10731	9
10724	10723	10722	10728	9
10724	10723	10730	10732	9
10724	10721	10720	10727	9
10724	10721	10731	10733	9
10721	10724	10723	10730	9
10721	10720	10719	10725	9
10720	10721	10724	10729	9
10720	10721	10731	10733	9
10720	10719	10722	10728	9
10720	10719	10725	10726	9
10729	10724	10721	10731	9
10727	10720	10721	10731	9
10725	10719	10722	10728	9
10725	10719	10720	10727	9
10728	10722	10723	10730	9
10729	10724	10723	10730	9
10735	10736	10739	10738	9
10738	10739	10736	10746	9
10735	10734	10737	10738	9
10738	10737	10734	10740	9
10734	10735	10736	10739	9
10739	10736	10735	10742	9
10739	10736	10746	10748	9
10734	10737	10738	10739	9
10739	10738	10737	10743	9
10739	10738	10745	10747	9
10736	10739	10738	10737	9
10736	10739	10738	10745	9
10736	10735	10734	10737	9
10736	10735	10734	10740	9
10735	10736	10739	10744	9
10735	10736	10746	10748	9
10735	10734	10737	10743	9
10735	10734	10740	10741	9
10734	10735	10736	10746	9
10734	10737	10738	10745	9
10737	10734	10735	10742	9
10737	10734	10740	10741	9
10737	10738	10739	10744	9
10737	10738	10745	10747	9
10740	10734	10735	10742	9
10740	10734	10737	10743	9
10744	10739	10738	10745	9
10743	10737	10738	10745	9
10744	10739	10736	10746	9
10742	10735	10736	10746	9
10749	10752	10753	10754	9
10749	10752	10753	10760	9
10749	10750	10751	10754	9
10749	10750	10751	10761	9
10751	10754	10753	10752	9
10752	10753	10754	10759	9
10752	10753	10760	10762	9
10751	10750	10749	10752	9
10752	10749	10750	10757	9
10752	10749	10755	10756	9
10750	10749	10752	10753	9
10753	10752	10749	10755	9
10750	10751	10754	10753	9
10753	10754	10751	10761	9
10754	10753	10752	10758	9
10754	10753	10760	10762	9
10754	10751	10750	10757	9
10754	10751	10761	10763	9
10751	10754	10753	10760	9
10751	10750	10749	10755	9
10750	10751	10754	10759	9
10750	10751	10761	10763	9
10750	10749	10752	10758	9
10750	10749	10755	10756	9
10759	10754	10751	10761	9
10757	10750	10751	10761	9
10755	10749	10752	10758	9
10755	10749	10750	10757	9
10758	10752	10753	10760	9
10759	10754	10753	10760	9
10778	10781	10782	10783	9
10778	10781	10782	10789	9
10778	10779	10780	10783	9
10778	10779	10780	10790	9
10780	10783	10782	10781	9
10781	10782	10783	10788	9
10781	10782	10789	10791	9
10780	10779	10778	10781	9
10781	10778	10779	10786	9
10781	10778	10784	10785	9
10779	10778	10781	10782	9
10782	10781	10778	10784	9
10779	10780	10783	10782	9
10782	10783	10780	10790	9
10783	10782	10781	10787	9
10783	10782	10789	10791	9
10783	10780	10779	10786	9
10783	10780	10790	10792	9
10780	10783	10782	10789	9
10780	10779	10778	10784	9
10779	10780	10783	10788	9
10779	10780	10790	10792	9
10779	10778	10781	10787	9
10779	10778	10784	10785	9
10788	10783	10780	10790	9
10786	10779	10780	10790	9
10784	10778	10781	10787	9
10784	10778	10779	10786	9
10787	10781	10782	10789	9
10788	10783	10782	10789	9
10793	10794	10795	10798	9
10793	10794	10795	10805	9
10793	10796	10797	10798	9
10793	10796	10797	10804	9
10794	10795	10798	10797	9
10794	10795	10798	10803	9
10794	10795	10805	10807	9
10794	10793	10796	10797	9
10794	10793	10796	10802	9
10794	10793	10799	10800	9
10795	10794	10793	10796	9
10795	10794	10793	10799	9
10795	10798	10797	10796	9
10795	10798	10797	10804	9
10798	10795	10794	10801	9
10798	10795	10805	10807	9
10798	10797	10796	10802	9
10798	10797	10804	10806	9
10797	10798	10795	10805	9
10797	10796	10793	10799	9
10796	10797	10798	10803	9
10796	10797	10804	10806	9
10796	10793	10794	10801	9
10796	10793	10799	10800	9
10803	10798	10797	10804	9
10802	10796	10797	10804	9
10799	10793	10794	10801	9
10799	10793	10796	10802	9
10801	10794	10795	10805	9
10803	10798	10795	10805	9
10822	10823	10824	10827	9
10822	10823	10824	10834	9
10822	10825	10826	10827	9
10822	10825	10826	10833	9
10823	10824	10827	10826	9
10823	10824	10827	10832	9
10823	10824	10834	10836	9
10823	10822	10825	10826	9
10823	10822	10825	10831	9
10823	10822	10828	10829	9
10824	10823	10822	10825	9
10824	10823	10822	10828	9
10824	10827	10826	10825	9
10824	10827	10826	10833	9
10827	10824	10823	10830	9
10827	10824	10834	10836	9
10827	10826	10825	10831	9
10827	10826	10833	10835	9
10826	10827	10824	10834	9
10826	10825	10822	10828	9
10825	10826	10827	10832	9
10825	10826	10833	10835	9
10825	10822	10823	10830	9
10825	10822	10828	10829	9
10832	10827	10826	10833	9
10831	10825	10826	10833	9
10828	10822	10823	10830	9
10828	10822	10825	10831	9
10830	10823	10824	10834	9
10832	10827	10824	10834	9
10851	10854	10855	10856	9
10851	10854	10855	10862	9
10851	10852	10853	10856	9
10851	10852	10853	10863	9
10854	10855	10856	10853	9
10854	10855	10856	10861	9
10854	10855	10862	10864	9
10854	10851	10852	10853	9
10854	10851	10852	10859	9
10854	10851	10857	10858	9
10855	10854	10851	10852	9
10855	10854	10851	10857	9
10855	10856	10853	10852	9
10855	10856	10853	10863	9
10856	10855	10854	10860	9
10856	10855	10862	10864	9
10856	10853	10852	10859	9
10856	10853	10863	10865	9
10853	10856	10855	10862	9
10853	10852	10851	10857	9
10852	10853	10856	10861	9
10852	10853	10863	10865	9
10852	10851	10854	10860	9
10852	10851	10857	10858	9
10861	10856	10853	10863	9
10859	10852	10853	10863	9
10857	10851	10854	10860	9
10857	10851	10852	10859	9
10860	10854	10855	10862	9
10861	10856	10855	10862	9
10866	10869	10870	10871	9
10866	10869	10870	10877	9
10866	10867	10868	10871	9
10866	10867	10868	10878	9
10869	10870	10871	10868	9
10869	10870	10871	10876	9
10869	10870	10877	10879	9
10869	10866	10867	10868	9
10869	10866	10867	10874	9
10869	10866	10872	10873	9
10870	10869	10866	10867	9
10870	10869	10866	10872	9
10870	10871	10868	10867	9
10870	10871	10868	10878	9
10871	10870	10869	10875	9
10871	10870	10877	10879	9
10871	10868	10867	10874	9
10871	10868	10878	10880	9
10868	10871	10870	10877	9
10868	10867	10866	10872	9
10867	10868	10871	10876	9
10867	10868	10878	10880	9
10867	10866	10869	10875	9
10867	10866	10872	10873	9
10876	10871	10868	10878	9
10874	10867	10868	10878	9
10872	10866	10869	10875	9
10872	10866	10867	10874	9
10875	10869	10870	10877	9
10876	10871	10870	10877	9
10895	10896	10897	10900	9
10895	10896	10897	10907	9
10895	10898	10899	10900	9
10895	10898	10899	10906	9
10896	10897	10900	10899	9
10896	10897	10900	10905	9
10896	10897	10907	10909	9
10896	10895	10898	10899	9
10896	10895	10898	10904	9
10896	10895	10901	10902	9
10897	10896	10895	10898	9
10897	10896	10895	10901	9
10897	10900	10899	10898	9
10897	10900	10899	10906	9
10900	10897	10896	10903	9
10900	10897	10907	10909	9
10900	10899	10898	10904	9
10900	10899	10906	10908	9
10899	10900	10897	10907	9
10899	10898	10895	10901	9
10898	10899	10900	10905	9
10898	10899	10906	10908	9
10898	10895	10896	10903	9
10898	10895	10901	10902	9
10905	10900	10899	10906	9
10904	10898	10899	10906	9
10901	10895	10896	10903	9
10901	10895	10898	10904	9
10903	10896	10897	10907	9
10905	10900	10897	10907	9
10924	10925	10926	10929	9
10924	10925	10926	10936	9
10924	10927	10928	10929	9
10924	10927	10928	10935	9
10925	10926	10929	10928	9
10925	10926	10929	10934	9
10925	10926	10936	10938	9
10925	10924	10927	10928	9
10925	10924	10927	10933	9
10925	10924	10930	10931	9
10926	10925	10924	10927	9
10926	10925	10924	10930	9
10926	10929	10928	10927	9
10926	10929	10928	10935	9
10929	10926	10925	10932	9
10929	10926	10936	10938	9
10929	10928	10927	10933	9
10929	10928	10935	10937	9
10928	10929	10926	10936	9
10928	10927	10924	10930	9
10927	10928	10929	10934	9
10927	10928	10935	10937	9
10927	10924	10925	10932	9
10927	10924	10930	10931	9
10934	10929	10928	10935	9
10933	10927	10928	10935	9
10930	10924	10925	10932	9
10930	10924	10927	10933	9
10932	10925	10926	10936	9
10934	10929	10926	10936	9
10953	10954	10955	10958	9
10953	10954	10955	10965	9
10953	10956	10957	10958	9
10953	10956	10957	10964	9
10954	10955	10958	10957	9
10954	10955	10958	10963	9
10954	10955	10965	10967	9
10954	10953	10956	10957	9
10954	10953	10956	10962	9
10954	10953	10959	10960	9
10955	10954	10953	10956	9
10955	10954	10953	10959	9
10955	10958	10957	10956	9
10955	10958	10957	10964	9
10958	10955	10954	10961	9
10958	10955	10965	10967	9
10958	10957	10956	10962	9
10958	10957	10964	10966	9
10957	10958	10955	10965	9
10957	10956	10953	10959	9
10956	10957	10958	10963	9
10956	10957	10964	10966	9
10956	10953	10954	10961	9
10956	10953	10959	10960	9
10963	10958	10957	10964	9
10962	10956	10957	10964	9
10959	10953	10954	10961	9
10959	10953	10956	10962	9
10961	10954	10955	10965	9
10963	10958	10955	10965	9
10968	10971	10972	10973	9
10968	10971	10972	10979	9
10968	10969	10970	10973	9
10968	10969	10970	10980	9
10970	10973	10972	10971	9
10971	10972	10973	10978	9
10971	10972	10979	10981	9
10970	10969	10968	10971	9
10971	10968	10969	10976	9
10971	10968	10974	10975	9
10969	10968	10971	10972	9
10972	10971	10968	10974	9
10969	10970	10973	10972	9
10972	10973	10970	10980	9
10973	10972	10971	10977	9
10973	10972	10979	10981	9
10973	10970	10969	10976	9
10973	10970	10980	10982	9
10970	10973	10972	10979	9
10970	10969	10968	10974	9
10969	10970	10973	10978	9
10969	10970	10980	10982	9
10969	10968	10971	10977	9
10969	10968	10974	10975	9
10978	10973	10970	10980	9
10976	10969	10970	10980	9
10974	10968	10971	10977	9
10974	10968	10969	10976	9
10977	10971	10972	10979	9
10978	10973	10972	10979	9
10983	10986	10987	10988	9
10983	10986	10987	10994	9
10983	10984	10985	10988	9
10983	10984	10985	10995	9
10985	10988	10987	10986	9
10986	10987	10988	10993	9
10986	10987	10994	10996	9
10985	10984	10983	10986	9
10986	10983	10984	10991	9
10986	10983	10989	10990	9
10984	10983	10986	10987	9
10987	10986	10983	10989	9
10984	10985	10988	10987	9
10987	10988	10985	10995	9
10988	10987	10986	10992	9
10988	10987	10994	10996	9
10988	10985	10984	10991	9
10988	10985	10995	10997	9
10985	10988	10987	10994	9
10985	10984	10983	10989	9
10984	10985	10988	10993	9
10984	10985	10995	10997	9
10984	10983	10986	10992	9
10984	10983	10989	10990	9
10993	10988	10985	10995	9
10991	10984	10985	10995	9
10989	10983	10986	10992	9
10989	10983	10984	10991	9
10992	10986	10987	10994	9
10993	10988	10987	10994	9
10998	11001	11002	11003	9
10998	11001	11002	11009	9
10998	10999	11000	11003	9
10998	10999	11000	11010	9
11000	11003	11002	11001	9
11001	11002	11003	11008	9
11001	11002	11009	11011	9
11000	10999	10998	11001	9
11001	10998	10999	11006	9
11001	10998	11004	11005	9
10999	10998	11001	11002	9
11002	11001	10998	11004	9
10999	11000	11003	11002	9
11002	11003	11000	11010	9
11003	11002	11001	11007	9
11003	11002	11009	11011	9
11003	11000	10999	11006	9
11003	11000	11010	11012	9
11000	11003	11002	11009	9
11000	10999	10998	11004	9
10999	11000	11003	11008	9
10999	11000	11010	11012	9
10999	10998	11001	11007	9
10999	10998	11004	11005	9
11008	11003	11000	11010	9
11006	10999	11000	11010	9
11004	10998	11001	11007	9
11004	10998	10999	11006	9
11007	11001	11002	11009	9
11008	11003	11002	11009	9
11027	11028	11029	11032	9
11027	11028	11029	11039	9
11027	11030	11031	11032	9
11027	11030	11031	11038	9
11031	11032	11029	11028	9
11028	11029	11032	11037	9
11028	11029	11039	11041	9
11031	11030	11027	11028	9
11028	11027	11030	11036	9
11028	11027	11033	11034	9
11030	11027	11028	11029	9
11029	11028	11027	11033	9
11030	11031	11032	11029	9
11029	11032	11031	11038	9
11032	11029	11028	11035	9
11032	11029	11039	11041	9
11032	11031	11030	11036	9
11032	11031	11038	11040	9
11031	11032	11029	11039	9
11031	11030	11027	11033	9
11030	11031	11032	11037	9
11030	11031	11038	11040	9
11030	11027	11028	11035	9
11030	11027	11033	11034	9
11037	11032	11031	11038	9
11036	11030	11031	11038	9
11033	11027	11028	11035	9
11033	11027	11030	11036	9
11035	11028	11029	11039	9
11037	11032	11029	11039	9
11042	11045	11046	11047	9
11042	11045	11046	11053	9
11042	11043	11044	11047	9
11042	11043	11044	11054	9
11045	11046	11047	11044	9
11045	11046	11047	11052	9
11045	11046	11053	11055	9
11045	11042	11043	11044	9
11045	11042	11043	11050	9
11045	11042	11048	11049	9
11046	11045	11042	11043	9
11046	11045	11042	11048	9
11046	11047	11044	11043	9
11046	11047	11044	11054	9
11047	11046	11045	11051	9
11047	11046	11053	11055	9
11047	11044	11043	11050	9
11047	11044	11054	11056	9
11044	11047	11046	11053	9
11044	11043	11042	11048	9
11043	11044	11047	11052	9
11043	11044	11054	11056	9
11043	11042	11045	11051	9
11043	11042	11048	11049	9
11052	11047	11044	11054	9
11050	11043	11044	11054	9
11048	11042	11045	11051	9
11048	11042	11043	11050	9
11051	11045	11046	11053	9
11052	11047	11046	11053	9
2548	2551	2552	2553	9
2548	2551	2552	2559	9
2548	2549	2550	2553	9
2548	2549	2550	2560	9
2550	2553	2552	2551	9
2551	2552	2553	2558	9
2551	2552	2559	2561	9
2550	2549	2548	2551	9
2551	2548	2549	2556	9
2551	2548	2554	2555	9
2549	2548	2551	2552	9
2552	2551	2548	2554	9
2549	2550	2553	2552	9
2552	2553	2550	2560	9
2553	2552	2551	2557	9
2553	2552	2559	2561	9
2553	2550	2549	2556	9
2553	2550	2560	2562	9
2553	2550	2560	2563	9
2550	2553	2552	2559	9
2550	2549	2548	2554	9
2550	2560	2563	2564	9
2549	2550	2553	2558	9
2549	2550	2560	2562	9
2549	2550	2560	2563	9
2549	2548	2551	2557	9
2549	2548	2554	2555	9
2558	2553	2550	2560	9
2556	2549	2550	2560	9
2554	2548	2551	2557	9
2554	2548	2549	2556	9
2557	2551	2552	2559	9
2558	2553	2552	2559	9
2562	2560	2563	2564	9
11057	11058	11059	11062	9
11057	11058	11059	11069	9
11057	11060	11061	11062	9
11057	11060	11061	11068	9
11058	11059	11062	11061	9
11058	11059	11062	11067	9
11058	11059	11069	11071	9
11058	11057	11060	11061	9
11058	11057	11060	11066	9
11058	11057	11063	11064	9
11059	11058	11057	11060	9
11059	11058	11057	11063	9
11059	11062	11061	11060	9
11059	11062	11061	11068	9
11062	11059	11058	11065	9
11062	11059	11069	11071	9
11062	11061	11060	11066	9
11062	11061	11068	11070	9
11061	11062	11059	11069	9
11061	11060	11057	11063	9
11060	11061	11062	11067	9
11060	11061	11068	11070	9
11060	11057	11058	11065	9
11060	11057	11063	11064	9
11067	11062	11061	11068	9
11066	11060	11061	11068	9
11063	11057	11058	11065	9
11063	11057	11060	11066	9
11065	11058	11059	11069	9
11067	11062	11059	11069	9
11072	11073	11074	11077	9
11072	11073	11074	11084	9
11072	11075	11076	11077	9
11072	11075	11076	11083	9
11073	11074	11077	11076	9
11073	11074	11077	11082	9
11073	11074	11084	11086	9
11073	11072	11075	11076	9
11073	11072	11075	11081	9
11073	11072	11078	11079	9
11074	11073	11072	11075	9
11074	11073	11072	11078	9
11074	11077	11076	11075	9
11074	11077	11076	11083	9
11077	11074	11073	11080	9
11077	11074	11084	11086	9
11077	11076	11075	11081	9
11077	11076	11083	11085	9
11076	11077	11074	11084	9
11076	11075	11072	11078	9
11075	11076	11077	11082	9
11075	11076	11083	11085	9
11075	11072	11073	11080	9
11075	11072	11078	11079	9
11082	11077	11076	11083	9
11081	11075	11076	11083	9
11078	11072	11073	11080	9
11078	11072	11075	11081	9
11080	11073	11074	11084	9
11082	11077	11074	11084	9
11101	11102	11103	11106	9
11101	11102	11103	11113	9
11101	11104	11105	11106	9
11101	11104	11105	11112	9
11102	11103	11106	11105	9
11102	11103	11106	11111	9
11102	11103	11113	11115	9
11102	11101	11104	11105	9
11102	11101	11104	11110	9
11102	11101	11107	11108	9
11103	11102	11101	11104	9
11103	11102	11101	11107	9
11103	11106	11105	11104	9
11103	11106	11105	11112	9
11106	11103	11102	11109	9
11106	11103	11113	11115	9
11106	11105	11104	11110	9
11106	11105	11112	11114	9
11105	11106	11103	11113	9
11105	11104	11101	11107	9
11104	11105	11106	11111	9
11104	11105	11112	11114	9
11104	11101	11102	11109	9
11104	11101	11107	11108	9
11111	11106	11105	11112	9
11110	11104	11105	11112	9
11107	11101	11102	11109	9
11107	11101	11104	11110	9
11109	11102	11103	11113	9
11111	11106	11103	11113	9
11130	11131	11132	11135	9
11130	11131	11132	11142	9
11130	11133	11134	11135	9
11130	11133	11134	11141	9
11131	11132	11135	11134	9
11131	11132	11135	11140	9
11131	11132	11142	11144	9
11131	11130	11133	11134	9
11131	11130	11133	11139	9
11131	11130	11136	11137	9
11132	11131	11130	11133	9
11132	11131	11130	11136	9
11132	11135	11134	11133	9
11132	11135	11134	11141	9
11135	11132	11131	11138	9
11135	11132	11142	11144	9
11135	11134	11133	11139	9
11135	11134	11141	11143	9
11134	11135	11132	11142	9
11134	11133	11130	11136	9
11133	11134	11135	11140	9
11133	11134	11141	11143	9
11133	11130	11131	11138	9
11133	11130	11136	11137	9
11140	11135	11134	11141	9
11139	11133	11134	11141	9
11136	11130	11131	11138	9
11136	11130	11133	11139	9
11138	11131	11132	11142	9
11140	11135	11132	11142	9
2579	2580	2581	2584	9
2579	2580	2581	2591	9
2579	2582	2583	2584	9
2579	2582	2583	2590	9
2580	2581	2584	2583	9
2580	2581	2584	2589	9
2580	2581	2591	2593	9
2580	2581	2591	2594	9
2580	2579	2582	2583	9
2580	2579	2582	2588	9
2580	2579	2585	2586	9
2581	2580	2579	2582	9
2581	2580	2579	2585	9
2581	2584	2583	2582	9
2581	2584	2583	2590	9
2581	2591	2594	2595	9
2584	2581	2580	2587	9
2584	2581	2591	2593	9
2584	2581	2591	2594	9
2584	2583	2582	2588	9
2584	2583	2590	2592	9
2583	2584	2581	2591	9
2583	2582	2579	2585	9
2582	2583	2584	2589	9
2582	2583	2590	2592	9
2582	2579	2580	2587	9
2582	2579	2585	2586	9
2589	2584	2583	2590	9
2588	2582	2583	2590	9
2585	2579	2580	2587	9
2585	2579	2582	2588	9
2587	2580	2581	2591	9
2589	2584	2581	2591	9
2593	2591	2594	2595	9
11145	11146	11147	11150	9
11145	11146	11147	11157	9
11145	11148	11149	11150	9
11145	11148	11149	11156	9
11146	11147	11150	11149	9
11146	11147	11150	11155	9
11146	11147	11157	11159	9
11146	11145	11148	11149	9
11146	11145	11148	11154	9
11146	11145	11151	11152	9
11147	11146	11145	11148	9
11147	11146	11145	11151	9
11147	11150	11149	11148	9
11147	11150	11149	11156	9
11150	11147	11146	11153	9
11150	11147	11157	11159	9
11150	11149	11148	11154	9
11150	11149	11156	11158	9
11149	11150	11147	11157	9
11149	11148	11145	11151	9
11148	11149	11150	11155	9
11148	11149	11156	11158	9
11148	11145	11146	11153	9
11148	11145	11151	11152	9
11155	11150	11149	11156	9
11154	11148	11149	11156	9
11151	11145	11146	11153	9
11151	11145	11148	11154	9
11153	11146	11147	11157	9
11155	11150	11147	11157	9
11160	11163	11164	11165	9
11160	11163	11164	11171	9
11160	11161	11162	11165	9
11160	11161	11162	11172	9
11162	11165	11164	11163	9
11163	11164	11165	11170	9
11163	11164	11171	11173	9
11162	11161	11160	11163	9
11163	11160	11161	11168	9
11163	11160	11166	11167	9
11161	11160	11163	11164	9
11164	11163	11160	11166	9
11161	11162	11165	11164	9
11164	11165	11162	11172	9
11165	11164	11163	11169	9
11165	11164	11171	11173	9
11165	11162	11161	11168	9
11165	11162	11172	11174	9
11162	11165	11164	11171	9
11162	11161	11160	11166	9
11161	11162	11165	11170	9
11161	11162	11172	11174	9
11161	11160	11163	11169	9
11161	11160	11166	11167	9
11170	11165	11162	11172	9
11168	11161	11162	11172	9
11166	11160	11163	11169	9
11166	11160	11161	11168	9
11169	11163	11164	11171	9
11170	11165	11164	11171	9
5320	5319	5308	6370	2
5318	5317	5310	5327	2
5319	5309	5307	5308	2
5317	5311	5309	5310	2
5313	5310	5308	5309	2
5315	5312	5308	5307	2
5314	5310	5312	5311	2
5316	5311	5307	5312	2
4579	4578	4567	5333	2
4577	4576	4569	4586	2
4578	4566	4568	4567	2
4576	4570	4568	4569	2
4572	4569	4567	4568	2
4574	4567	4571	4566	2
4573	4571	4569	4570	2
4575	4570	4566	4571	2
9843	9842	9831	9850	2
9841	9840	9833	8732	2
9842	9830	9832	9831	2
9840	9832	9834	9833	2
9836	9831	9833	9832	2
9838	9831	9835	9830	2
9837	9835	9833	9834	2
9839	9834	9830	9835	2
5173	5172	5165	7739	2
5175	5174	5163	5182	2
5172	5166	5164	5165	2
5174	5164	5162	5163	2
5168	5163	5165	5164	2
5169	5167	5165	5166	2
5170	5167	5163	5162	2
5171	5162	5166	5167	2
1372	1371	1360	1353	2
1370	1369	1362	7228	2
1371	1359	1361	1360	2
1369	1361	1363	1362	2
1365	1360	1362	1361	2
1367	1360	1364	1359	2
1366	1362	1364	1363	2
1368	1363	1359	1364	2
11608	11607	11596	4591	2
11606	11605	11598	10002	2
11607	11595	11597	11596	2
11605	11597	11599	11598	2
11601	11596	11598	11597	2
11603	11596	11600	11595	2
11602	11598	11600	11599	2
11604	11599	11595	11600	2
2636	2635	2628	3953	2
2637	2638	2626	2639	2
2635	2629	2627	2628	2
2637	2627	2625	2626	2
2631	2628	2626	2627	2
2632	2630	2628	2629	2
2633	2626	2630	2625	2
2634	2625	2629	2630	2
814	813	802	4505	2
812	811	804	790	2
813	802	801	803	2
811	803	805	804	2
807	804	802	803	2
809	802	801	806	2
808	806	804	805	2
810	805	801	806	2
11129	11128	11117	4345	2
11127	11126	11119	11136	2
11128	11118	11116	11117	2
11126	11120	11118	11119	2
11122	11117	11119	11118	2
11124	11121	11117	11116	2
11123	11121	11119	11120	2
11125	11120	11116	11121	2
11550	11549	11542	4447	2
11552	11551	11540	7229	2
11549	11541	11543	11542	2
11551	11539	11541	11540	2
11545	11540	11542	11541	2
11546	11544	11542	11543	2
11547	11544	11540	11539	2
11548	11543	11539	11544	2
9872	9871	9860	5975	2
9870	9869	9862	9879	2
9871	9859	9861	9860	2
9869	9863	9861	9862	2
9865	9860	9862	9861	2
9867	9860	9864	9859	2
9866	9864	9862	9863	2
9868	9859	9863	9864	2
7199	7198	7191	10965	2
7201	7200	7189	7208	2
7198	7192	7190	7191	2
7200	7190	7189	7188	2
7194	7189	7191	7190	2
7195	7193	7191	7192	2
7196	7189	7193	7188	2
7197	7188	7192	7193	2
2846	2845	2838	5634	2
2847	2849	2836	2848	2
2845	2839	2837	2838	2
2847	2837	2835	2836	2
2841	2836	2838	2837	2
2842	2838	2840	2839	2
2843	2840	2836	2835	2
2844	2835	2839	2840	2
9521	9520	9509	9528	2
9519	9518	9511	5304	2
9520	9508	9510	9509	2
9518	9510	9512	9511	2
9514	9511	9509	9510	2
9516	9513	9509	9508	2
9515	9513	9511	9512	2
9517	9512	9508	9513	2
13708	13707	13696	1537	2
13706	13705	13698	10614	2
13707	13697	13695	13696	2
13705	13697	13699	13698	2
13701	13698	13696	13697	2
13703	13700	13696	13695	2
13702	13698	13700	13699	2
13704	13695	13699	13700	2
64	63	52	2537	2
62	61	54	42	2
63	53	51	52	2
61	53	55	54	2
57	52	54	53	2
59	52	56	51	2
58	56	54	55	2
60	51	55	56	2
9580	9579	9568	5478	2
9578	9577	9570	9587	2
9579	9569	9567	9568	2
9577	9569	9571	9570	2
9573	9568	9570	9569	2
9575	9572	9568	9567	2
9574	9572	9570	9571	2
9576	9571	9567	9572	2
4230	4229	4218	10380	2
4228	4227	4220	4237	2
4229	4219	4217	4218	2
4227	4219	4221	4220	2
4223	4220	4218	4219	2
4225	4218	4222	4217	2
4224	4222	4220	4221	2
4226	4217	4221	4222	2
11300	11299	11288	4039	2
11298	11297	11290	10439	2
11299	11289	11287	11288	2
11297	11291	11289	11290	2
11293	11290	11288	11289	2
11295	11292	11288	11287	2
11294	11292	11290	11291	2
11296	11287	11291	11292	2
12266	12265	12254	9754	2
12264	12263	12256	5742	2
12265	12253	12255	12254	2
12263	12255	12257	12256	2
12259	12256	12254	12255	2
12261	12258	12254	12253	2
12260	12256	12258	12257	2
12262	12253	12257	12258	2
11356	11355	11344	4127	2
11354	11353	11346	7855	2
11355	11345	11343	11344	2
11353	11345	11347	11346	2
11349	11346	11344	11345	2
11351	11348	11344	11343	2
11350	11346	11348	11347	2
11352	11343	11347	11348	2
8044	8043	8036	8053	2
8046	8045	8034	7156	2
8043	8037	8035	8036	2
8045	8033	8035	8034	2
8039	8036	8034	8035	2
8040	8036	8038	8037	2
8041	8034	8038	8033	2
8042	8033	8037	8038	2
9814	9813	9802	9821	2
9812	9811	9804	10374	2
9813	9801	9803	9802	2
9811	9803	9805	9804	2
9807	9804	9802	9803	2
9809	9806	9802	9801	2
9808	9804	9806	9805	2
9810	9801	9805	9806	2
13778	13777	13766	1348	2
13776	13775	13768	1640	2
13777	13767	13765	13766	2
13775	13767	13769	13768	2
13771	13768	13766	13767	2
13773	13766	13770	13765	2
13772	13768	13770	13769	2
13774	13769	13765	13770	2
8953	8952	8941	8960	2
8951	8950	8943	8527	2
8952	8940	8942	8941	2
8950	8944	8942	8943	2
8946	8943	8941	8942	2
8948	8945	8941	8940	2
8947	8943	8945	8944	2
8949	8944	8940	8945	2
10424	10423	10416	10433	2
10426	10425	10414	11069	2
10423	10417	10415	10416	2
10425	10413	10415	10414	2
10419	10414	10416	10415	2
10420	10416	10418	10417	2
10421	10414	10418	10413	2
10422	10413	10417	10418	2
4942	4941	4930	4949	2
4940	4939	4932	11068	2
4941	4931	4929	4930	2
4939	4931	4933	4932	2
4935	4930	4932	4931	2
4937	4934	4930	4929	2
4936	4932	4934	4933	2
4938	4933	4929	4934	2
3056	3055	3048	7433	2
3057	3058	3046	3059	2
3055	3049	3047	3048	2
3057	3047	3045	3046	2
3051	3048	3046	3047	2
3052	3048	3050	3049	2
3053	3046	3050	3045	2
3054	3049	3045	3050	2
10952	10951	10940	10365	2
10950	10949	10942	10959	2
10951	10939	10941	10940	2
10949	10943	10941	10942	2
10945	10940	10942	10941	2
10947	10940	10944	10939	2
10946	10944	10942	10943	2
10948	10939	10943	10944	2
11958	11957	11946	2123	2
11956	11955	11948	5158	2
11957	11947	11945	11946	2
11955	11949	11947	11948	2
11951	11946	11948	11947	2
11953	11950	11946	11945	2
11952	11948	11950	11949	2
11954	11945	11949	11950	2
8615	8614	8607	8624	2
8617	8616	8605	6049	2
8614	8608	8606	8607	2
8616	8606	8604	8605	2
8610	8607	8605	8606	2
8611	8607	8609	8608	2
8612	8609	8605	8604	2
8613	8608	8604	8609	2
3312	3314	3301	3313	2
3311	3310	3303	8975	2
3312	3300	3301	3302	2
3310	3302	3304	3303	2
3306	3303	3301	3302	2
3308	3305	3301	3300	2
3307	3305	3303	3304	2
3309	3304	3300	3305	2
3237	3239	3226	3238	2
3236	3235	3228	8566	2
3237	3227	3225	3226	2
3235	3227	3229	3228	2
3231	3226	3228	3227	2
3233	3226	3230	3225	2
3232	3228	3230	3229	2
3234	3229	3225	3230	2
2861	2860	2853	5639	2
2862	2863	2851	2864	2
2860	2852	2854	2853	2
2862	2850	2852	2851	2
2856	2851	2853	2852	2
2857	2855	2853	2854	2
2858	2855	2851	2850	2
2859	2850	2854	2855	2
13414	13413	13402	8571	2
13412	13411	13404	8426	2
13413	13403	13401	13402	2
13411	13403	13405	13404	2
13407	13402	13404	13403	2
13409	13406	13402	13401	2
13408	13404	13406	13405	2
13410	13405	13401	13406	2
3162	3164	3151	3163	2
3161	3160	3153	8132	2
3162	3150	3152	3151	2
3160	3152	3154	3153	2
3156	3151	3153	3152	2
3158	3155	3151	3150	2
3157	3153	3155	3154	2
3159	3150	3154	3155	2
2406	2405	2394	2382	2
2404	2403	2396	6048	2
2405	2395	2393	2394	2
2403	2395	2397	2396	2
2399	2394	2396	2395	2
2401	2394	2398	2393	2
2400	2398	2396	2397	2
2402	2393	2397	2398	2
10047	10046	10035	10054	2
10045	10044	10037	11063	2
10046	10036	10034	10035	2
10044	10038	10036	10037	2
10040	10037	10035	10036	2
10042	10035	10039	10034	2
10041	10039	10037	10038	2
10043	10038	10034	10039	2
5204	5203	5192	7374	2
5202	5201	5194	5211	2
5203	5193	5191	5192	2
5201	5193	5195	5194	2
5197	5194	5192	5193	2
5199	5192	5196	5191	2
5198	5196	5194	5195	2
5200	5195	5191	5196	2
11494	11493	11486	547	2
11496	11495	11484	4344	2
11493	11485	11487	11486	2
11495	11485	11483	11484	2
11489	11486	11484	11485	2
11490	11488	11486	11487	2
11491	11488	11484	11483	2
11492	11487	11483	11488	2
5044	5043	5032	5051	2
5042	5041	5034	8366	2
5043	5033	5031	5032	2
5041	5035	5033	5034	2
5037	5034	5032	5033	2
5039	5032	5036	5031	2
5038	5036	5034	5035	2
5040	5035	5031	5036	2
288	287	276	266	2
286	285	278	5917	2
287	277	275	276	2
285	279	277	278	2
281	278	276	277	2
283	276	280	275	2
282	280	278	279	2
284	279	275	280	2
11998	11997	11990	918	2
12000	11999	11988	5275	2
11997	11989	11991	11990	2
11999	11987	11989	11988	2
11993	11990	11988	11989	2
11994	11992	11990	11991	2
11995	11988	11992	11987	2
11996	11991	11987	11992	2
4201	4200	4189	4208	2
4199	4198	4191	7957	2
4200	4190	4188	4189	2
4198	4192	4190	4191	2
4194	4189	4191	4190	2
4196	4193	4189	4188	2
4195	4193	4191	4192	2
4197	4188	4192	4193	2
3687	3689	3676	3688	2
3686	3685	3678	10989	2
3687	3675	3677	3676	2
3685	3677	3679	3678	2
3681	3678	3676	3677	2
3683	3676	3680	3675	2
3682	3678	3680	3679	2
3684	3680	3675	3679	2
11286	11285	11274	4040	2
11284	11283	11276	11142	2
11285	11273	11275	11274	2
11283	11277	11275	11276	2
11279	11276	11274	11275	2
11281	11274	11278	11273	2
11280	11276	11278	11277	2
11282	11273	11277	11278	2
2727	2729	2716	2728	2
2726	2725	2718	4983	2
2727	2717	2716	2715	2
2725	2717	2719	2718	2
2721	2718	2716	2717	2
2723	2716	2720	2715	2
2722	2718	2720	2719	2
2724	2715	2719	2720	2
10250	10249	10238	10257	2
10248	10247	10240	10799	2
10249	10239	10237	10238	2
10247	10239	10241	10240	2
10243	10240	10238	10239	2
10245	10238	10242	10237	2
10244	10242	10240	10241	2
10246	10241	10237	10242	2
12378	12377	12366	10059	2
12376	12375	12368	5873	2
12377	12365	12367	12366	2
12375	12369	12367	12368	2
12371	12366	12368	12367	2
12373	12370	12366	12365	2
12372	12368	12370	12369	2
12374	12365	12369	12370	2
11692	11691	11680	1165	2
11690	11689	11682	4736	2
11691	11679	11681	11680	2
11689	11683	11681	11682	2
11685	11682	11680	11681	2
11687	11684	11680	11679	2
11686	11682	11684	11683	2
11688	11683	11679	11684	2
5117	5116	5105	9315	2
5115	5114	5107	5124	2
5116	5106	5104	5105	2
5114	5108	5106	5107	2
5110	5107	5105	5106	2
5112	5105	5109	5104	2
5111	5107	5109	5108	2
5113	5108	5104	5109	2
10323	10322	10311	7768	2
10321	10320	10313	10330	2
10322	10312	10310	10311	2
10320	10312	10314	10313	2
10316	10313	10311	10312	2
10318	10311	10315	10310	2
10317	10313	10315	10314	2
10319	10314	10310	10315	2
7624	7623	7612	7631	2
7622	7621	7614	10974	2
7623	7611	7612	7613	2
7621	7615	7613	7614	2
7617	7612	7614	7613	2
7619	7611	7612	7616	2
7618	7614	7616	7615	2
7620	7615	7611	7616	2
11202	11201	11190	899	2
11200	11199	11192	3851	2
11201	11191	11189	11190	2
11199	11193	11191	11192	2
11195	11192	11190	11191	2
11197	11190	11194	11189	2
11196	11192	11194	11193	2
11198	11193	11189	11194	2
9127	9126	9119	9476	2
9129	9128	9117	9136	2
9126	9120	9118	9119	2
9128	9116	9118	9117	2
9122	9117	9119	9118	2
9123	9121	9119	9120	2
9124	9117	9121	9116	2
9125	9116	9120	9121	2
564	563	556	542	2
566	565	554	5274	2
563	555	557	556	2
565	555	553	554	2
559	554	556	555	2
560	558	556	557	2
561	558	554	553	2
562	557	553	558	2
2981	2980	2973	6675	2
2982	2984	2971	2983	2
2980	2972	2974	2973	2
2982	2972	2970	2971	2
2976	2973	2971	2972	2
2977	2973	2975	2974	2
2978	2971	2975	2970	2
2979	2974	2970	2975	2
9100	9099	9088	10438	2
9098	9097	9090	9107	2
9099	9089	9087	9088	2
9097	9089	9091	9090	2
9093	9090	9088	9089	2
9095	9092	9088	9087	2
9094	9092	9090	9091	2
9096	9087	9091	9092	2
13512	13511	13500	9113	2
13510	13509	13502	8980	2
13511	13501	13499	13500	2
13509	13503	13501	13502	2
13505	13502	13500	13501	2
13507	13504	13500	13499	2
13506	13502	13504	13503	2
13508	13499	13503	13504	2
3416	3415	3408	9447	2
3417	3418	3406	3419	2
3415	3409	3407	3408	2
3417	3405	3407	3406	2
3411	3406	3408	3407	2
3412	3408	3410	3409	2
3413	3406	3410	3405	2
3414	3409	3405	3410	2
7973	7972	7961	6951	2
7971	7970	7963	7980	2
7972	7962	7960	7961	2
7970	7962	7964	7963	2
7966	7963	7961	7962	2
7968	7965	7961	7960	2
7967	7963	7965	7964	2
7969	7960	7964	7965	2
1075	1074	1063	1076	2
1073	1072	1065	5566	2
1074	1062	1064	1063	2
1072	1064	1066	1065	2
1068	1065	1063	1064	2
1070	1067	1063	1062	2
1069	1067	1065	1066	2
1071	1062	1066	1067	2
13498	13497	13486	10936	2
13496	13495	13488	8981	2
13497	13487	13485	13486	2
13495	13487	13489	13488	2
13491	13488	13486	13487	2
13493	13486	13490	13485	2
13492	13488	13490	13489	2
13494	13490	13485	13489	2
10689	10688	10677	3952	2
10687	10686	10679	10696	2
10688	10678	10676	10677	2
10686	10678	10680	10679	2
10682	10679	10677	10678	2
10684	10681	10677	10676	2
10683	10681	10679	10680	2
10685	10676	10680	10681	2
5612	5611	5600	2449	2
5610	5609	5602	5619	2
5611	5599	5601	5600	2
5609	5603	5601	5602	2
5605	5602	5600	5601	2
5607	5604	5600	5599	2
5606	5602	5604	5603	2
5608	5603	5599	5604	2
443	442	431	6335	2
441	440	433	419	2
442	432	430	431	2
440	432	434	433	2
436	433	431	432	2
438	431	435	430	2
437	433	435	434	2
439	434	430	435	2
7143	7142	7131	7150	2
7141	7140	7133	8600	2
7142	7132	7130	7131	2
7140	7134	7132	7133	2
7136	7133	7131	7132	2
7138	7131	7135	7130	2
7137	7135	7133	7134	2
7139	7134	7130	7135	2
690	689	678	10536	2
688	687	680	666	2
689	677	679	678	2
687	681	679	680	2
683	678	680	679	2
685	678	682	677	2
684	680	682	681	2
686	681	677	682	2
6691	6690	6679	8351	2
6689	6688	6681	6698	2
6690	6678	6680	6679	2
6688	6680	6682	6681	2
6684	6679	6681	6680	2
6686	6679	6683	6678	2
6685	6683	6681	6682	2
6687	6678	6682	6683	2
3476	3475	3468	9592	2
3477	3478	3466	3479	2
3475	3467	3469	3468	2
3477	3467	3465	3466	2
3471	3468	3466	3467	2
3472	3470	3468	3469	2
3473	3470	3466	3465	2
3474	3465	3469	3470	2
13050	13049	13038	7608	2
13048	13047	13040	10262	2
13049	13039	13037	13038	2
13047	13041	13039	13040	2
13043	13040	13038	13039	2
13045	13038	13042	13037	2
13044	13040	13042	13041	2
13046	13037	13041	13042	2
11412	11411	11400	7506	2
11410	11409	11402	4214	2
11411	11401	11399	11400	2
11409	11403	11401	11402	2
11405	11400	11402	11401	2
11407	11400	11404	11399	2
11406	11404	11402	11403	2
11408	11403	11399	11404	2
12756	12755	12744	2542	2
12754	12753	12746	6703	2
12755	12744	12743	12745	2
12753	12745	12747	12746	2
12749	12746	12744	12745	2
12751	12743	12744	12748	2
12750	12746	12748	12747	2
12752	12747	12743	12748	2
4027	4026	4015	6266	2
4025	4024	4017	4034	2
4026	4014	4016	4015	2
4024	4016	4018	4017	2
4020	4015	4017	4016	2
4022	4015	4019	4014	2
4021	4019	4017	4018	2
4023	4014	4018	4019	2
2297	2296	2285	2298	2
2295	2294	2287	10790	2
2296	2286	2284	2285	2
2294	2286	2288	2287	2
2290	2287	2285	2286	2
2292	2285	2289	2284	2
2291	2289	2287	2288	2
2293	2288	2284	2289	2
6633	6632	6621	6640	2
6631	6630	6623	8936	2
6632	6620	6622	6621	2
6630	6624	6622	6623	2
6626	6621	6623	6622	2
6628	6625	6621	6620	2
6627	6623	6625	6624	2
6629	6624	6620	6625	2
7551	7550	7539	7558	2
7549	7548	7541	4621	2
7550	7540	7538	7539	2
7548	7542	7540	7541	2
7544	7541	7539	7540	2
7546	7543	7539	7538	2
7545	7541	7543	7542	2
7547	7542	7538	7543	2
12812	12811	12800	6952	2
12810	12809	12802	2511	2
12811	12799	12801	12800	2
12809	12802	12801	12803	2
12805	12801	12802	12800	2
12807	12800	12804	12799	2
12806	12804	12802	12803	2
12808	12803	12799	12804	2
13022	13021	13010	9316	2
13020	13019	13012	7535	2
13021	13009	13011	13010	2
13019	13011	13013	13012	2
13015	13010	13012	13011	2
13017	13010	13014	13009	2
13016	13014	13012	13013	2
13018	13009	13013	13014	2
4434	4433	4422	4441	2
4432	4431	4424	6922	2
4433	4423	4421	4422	2
4431	4423	4425	4424	2
4427	4424	4422	4423	2
4429	4422	4426	4421	2
4428	4426	4424	4425	2
4430	4421	4425	4426	2
10777	10776	10765	10784	2
10775	10774	10767	5931	2
10776	10764	10766	10765	2
10774	10768	10766	10767	2
10770	10765	10767	10766	2
10772	10769	10765	10764	2
10771	10767	10769	10768	2
10773	10764	10768	10769	2
3702	3704	3691	3703	2
3701	3700	3693	10994	2
3702	3692	3690	3691	2
3700	3692	3694	3693	2
3696	3693	3691	3692	2
3698	3695	3691	3690	2
3697	3695	3693	3694	2
3699	3694	3690	3695	2
10923	10922	10911	10906	2
10921	10920	10913	10930	2
10922	10910	10912	10911	2
10920	10914	10912	10913	2
10916	10913	10911	10912	2
10918	10911	10915	10910	2
10917	10915	10913	10914	2
10919	10910	10914	10915	2
3536	3535	3528	9769	2
3537	3539	3526	3538	2
3535	3527	3529	3528	2
3537	3525	3527	3526	2
3531	3528	3526	3527	2
3532	3528	3530	3529	2
3533	3526	3530	3525	2
3534	3525	3529	3530	2
13008	13007	12996	7505	2
13006	13005	12998	9504	2
13007	12997	12995	12996	2
13005	12997	12999	12998	2
13001	12996	12998	12997	2
13003	13000	12996	12995	2
13002	13000	12998	12999	2
13004	12995	12999	13000	2
10018	10017	10006	10025	2
10016	10015	10008	3982	2
10017	10005	10007	10006	2
10015	10009	10007	10008	2
10011	10006	10008	10007	2
10013	10006	10010	10005	2
10012	10008	10010	10009	2
10014	10005	10009	10010	2
11342	11341	11330	4126	2
11340	11339	11332	10263	2
11341	11329	11331	11330	2
11339	11333	11331	11332	2
11335	11330	11332	11331	2
11337	11330	11334	11329	2
11336	11332	11334	11333	2
11338	11329	11333	11334	2
3446	3445	3438	9533	2
3447	3448	3436	3449	2
3445	3439	3437	3438	2
3447	3437	3435	3436	2
3441	3438	3436	3437	2
3442	3438	3440	3439	2
3443	3436	3440	3435	2
3444	3439	3435	3440	2
9989	9988	9977	9996	2
9987	9986	9979	5332	2
9988	9976	9978	9977	2
9986	9978	9980	9979	2
9982	9979	9977	9978	2
9984	9981	9977	9976	2
9983	9979	9981	9980	2
9985	9976	9980	9981	2
4971	4970	4959	4978	2
4969	4968	4961	6014	2
4970	4959	4958	4960	2
4968	4962	4961	4960	2
4964	4959	4961	4960	2
4966	4959	4963	4958	2
4965	4962	4963	4961	2
4967	4958	4962	4963	2
2622	2624	2611	2623	2
2621	2620	2613	3860	2
2622	2612	2610	2611	2
2620	2614	2612	2613	2
2616	2613	2611	2612	2
2618	2615	2611	2610	2
2617	2615	2613	2614	2
2619	2614	2610	2615	2
3071	3070	3063	7462	2
3072	3073	3061	3074	2
3070	3064	3062	3063	2
3072	3060	3062	3061	2
3066	3063	3061	3062	2
3067	3063	3065	3064	2
3068	3061	3065	3060	2
3069	3064	3060	3065	2
6895	6894	6883	6704	2
6893	6892	6885	6902	2
6894	6884	6882	6883	2
6892	6886	6884	6885	2
6888	6883	6885	6884	2
6890	6883	6887	6882	2
6889	6887	6885	6886	2
6891	6886	6882	6887	2
11986	11985	11974	5216	2
11984	11983	11976	8762	2
11985	11975	11973	11974	2
11983	11977	11975	11976	2
11979	11976	11974	11975	2
11981	11974	11978	11973	2
11980	11976	11978	11977	2
11982	11977	11973	11978	2
12042	12041	12030	8058	2
12040	12039	12032	5435	2
12041	12031	12029	12030	2
12039	12031	12033	12032	2
12035	12032	12030	12031	2
12037	12034	12030	12029	2
12036	12032	12034	12033	2
12038	12029	12033	12034	2
597	596	585	10448	2
595	594	587	573	2
596	584	586	585	2
594	588	586	587	2
590	585	587	586	2
592	589	585	584	2
591	589	587	588	2
593	588	584	589	2
13246	13245	13234	9667	2
13244	13243	13236	8189	2
13245	13235	13233	13234	2
13243	13235	13237	13236	2
13239	13234	13236	13235	2
13241	13234	13238	13233	2
13240	13236	13238	13237	2
13242	13237	13233	13238	2
12112	12111	12100	10556	2
12110	12109	12102	5536	2
12111	12099	12101	12100	2
12109	12101	12103	12102	2
12105	12102	12100	12101	2
12107	12104	12100	12099	2
12106	12104	12102	12103	2
12108	12103	12099	12104	2
6444	6443	6432	1783	2
6442	6441	6434	6451	2
6443	6433	6431	6432	2
6441	6435	6433	6434	2
6437	6434	6432	6433	2
6439	6436	6432	6431	2
6438	6434	6436	6435	2
6440	6435	6431	6436	2
3327	3329	3316	3328	2
3326	3325	3318	9019	2
3327	3315	3317	3316	2
3325	3317	3319	3318	2
3321	3318	3316	3317	2
3323	3320	3316	3315	2
3322	3320	3318	3319	2
3324	3319	3315	3320	2
3207	3208	3196	3209	2
3206	3205	3198	8556	2
3207	3197	3195	3196	2
3205	3199	3198	3197	2
3201	3196	3198	3197	2
3203	3196	3200	3195	2
3202	3198	3199	3200	2
3204	3195	3199	3200	2
11734	11733	11722	8323	2
11732	11731	11724	4765	2
11733	11723	11721	11722	2
11731	11725	11723	11724	2
11727	11724	11722	11723	2
11729	11722	11726	11721	2
11728	11724	11726	11725	2
11730	11725	11721	11726	2
12964	12963	12956	7388	2
12966	12965	12954	8702	2
12963	12957	12955	12956	2
12965	12953	12955	12954	2
12959	12956	12954	12955	2
12960	12958	12956	12957	2
12961	12958	12953	12954	2
12962	12953	12957	12958	2
12364	12363	12352	5872	2
12362	12361	12354	8645	2
12363	12351	12353	12352	2
12361	12355	12353	12354	2
12357	12354	12352	12353	2
12359	12352	12356	12351	2
12358	12356	12354	12355	2
12360	12355	12351	12356	2
12392	12391	12380	5901	2
12390	12389	12382	10307	2
12391	12379	12381	12380	2
12389	12383	12381	12382	2
12385	12382	12380	12381	2
12387	12380	12384	12379	2
12386	12384	12382	12383	2
12388	12383	12379	12384	2
3401	3400	3393	9170	2
3402	3403	3391	3404	2
3400	3394	3392	3393	2
3402	3390	3392	3391	2
3396	3391	3393	3392	2
3397	3393	3395	3394	2
3398	3391	3395	3390	2
3399	3394	3390	3395	2
9245	9244	9233	9252	2
9243	9242	9235	9894	2
9244	9232	9234	9233	2
9242	9236	9234	9235	2
9238	9233	9235	9234	2
9240	9233	9237	9232	2
9239	9235	9237	9236	2
9241	9236	9232	9237	2
9463	9462	9451	8381	2
9461	9460	9453	9470	2
9462	9450	9452	9451	2
9460	9454	9452	9453	2
9456	9451	9453	9452	2
9458	9455	9451	9450	2
9457	9455	9453	9454	2
9459	9454	9450	9455	2
12182	12181	12170	5595	2
12180	12179	12172	8278	2
12181	12171	12169	12170	2
12179	12171	12173	12172	2
12175	12170	12172	12171	2
12177	12170	12174	12169	2
12176	12174	12172	12173	2
12178	12169	12173	12174	2
5015	5014	5003	10453	2
5013	5012	5005	5022	2
5014	5002	5004	5003	2
5012	5004	5006	5005	2
5008	5003	5005	5004	2
5010	5007	5003	5002	2
5009	5005	5007	5006	2
5011	5006	5002	5007	2
2019	2018	2007	1995	2
2017	2016	2009	4504	2
2018	2008	2006	2007	2
2016	2008	2010	2009	2
2012	2009	2007	2008	2
2014	2007	2011	2006	2
2013	2009	2011	2010	2
2015	2010	2006	2011	2
7813	7812	7801	6907	2
7811	7810	7803	7820	2
7812	7802	7800	7801	2
7810	7804	7802	7803	2
7806	7801	7803	7802	2
7808	7805	7801	7800	2
7807	7805	7803	7804	2
7809	7800	7804	7805	2
6604	6603	6592	9763	2
6602	6601	6594	6611	2
6603	6593	6591	6592	2
6601	6595	6593	6594	2
6597	6592	6594	6593	2
6599	6592	6596	6591	2
6598	6594	6596	6595	2
6600	6591	6595	6596	2
5524	5523	5512	5531	2
5522	5521	5514	8673	2
5523	5513	5511	5512	2
5521	5515	5513	5514	2
5517	5512	5514	5513	2
5519	5512	5516	5511	2
5518	5514	5516	5515	2
5520	5515	5511	5516	2
8719	8718	8707	3981	2
8717	8716	8709	8726	2
8718	8706	8708	8707	2
8716	8710	8708	8709	2
8712	8709	8707	8708	2
8714	8707	8711	8706	2
8713	8709	8711	8710	2
8715	8706	8710	8711	2
12014	12013	12002	7287	2
12012	12011	12004	5347	2
12013	12001	12003	12002	2
12011	12003	12005	12004	2
12007	12004	12002	12003	2
12009	12006	12002	12001	2
12008	12006	12004	12005	2
12010	12001	12005	12006	2
13722	13721	13710	2233	2
13720	13719	13712	10615	2
13721	13709	13711	13710	2
13719	13713	13711	13712	2
13715	13712	13710	13711	2
13717	13710	13714	13709	2
13716	13712	13714	13713	2
13718	13709	13713	13714	2
11650	11649	11638	4650	2
11648	11647	11640	331	2
11649	11637	11639	11638	2
11647	11641	11639	11640	2
11643	11638	11640	11639	2
11645	11638	11642	11637	2
11644	11640	11642	11641	2
11646	11641	11637	11642	2
11454	11453	11442	4795	2
11452	11451	11444	4271	2
11453	11441	11443	11442	2
11451	11443	11445	11444	2
11447	11444	11442	11443	2
11449	11446	11442	11441	2
11448	11444	11446	11445	2
11450	11441	11445	11446	2
13610	13609	13598	10542	2
13608	13607	13600	9856	2
13609	13599	13597	13598	2
13607	13599	13601	13600	2
13603	13600	13598	13599	2
13605	13602	13598	13597	2
13604	13602	13600	13601	2
13606	13601	13597	13602	2
10631	10630	10619	9534	2
10629	10628	10621	10638	2
10630	10618	10620	10619	2
10628	10620	10622	10621	2
10624	10619	10621	10620	2
10626	10623	10619	10618	2
10625	10623	10621	10622	2
10627	10618	10622	10623	2
4361	4360	4349	11113	2
4359	4358	4351	4368	2
4360	4348	4350	4349	2
4358	4350	4352	4351	2
4354	4349	4351	4350	2
4356	4353	4349	4348	2
4355	4351	4353	4352	2
4357	4352	4348	4353	2
2499	2498	2487	2475	2
2497	2496	2489	4592	2
2498	2486	2488	2487	2
2496	2490	2488	2489	2
2492	2489	2487	2488	2
2494	2487	2491	2486	2
2493	2491	2489	2490	2
2495	2486	2490	2491	2
12700	12699	12688	6514	2
12698	12697	12690	7491	2
12699	12689	12687	12688	2
12697	12689	12691	12690	2
12693	12688	12690	12689	2
12695	12692	12688	12687	2
12694	12690	12692	12691	2
12696	12687	12691	12692	2
876	875	864	852	2
874	873	866	6276	2
875	863	865	864	2
873	867	865	866	2
869	864	866	865	2
871	864	868	863	2
870	868	866	867	2
872	867	863	868	2
5364	5363	5352	10060	2
5362	5361	5354	5371	2
5363	5351	5353	5352	2
5361	5355	5353	5354	2
5357	5354	5352	5353	2
5359	5352	5356	5351	2
5358	5354	5356	5355	2
5360	5351	5355	5356	2
5858	5857	5850	5867	2
5860	5859	5848	5926	2
5857	5849	5851	5850	2
5859	5847	5849	5848	2
5853	5850	5848	5849	2
5854	5852	5850	5851	2
5855	5852	5848	5847	2
5856	5847	5851	5852	2
11328	11327	11316	6718	2
11326	11325	11318	4098	2
11327	11315	11317	11316	2
11325	11319	11317	11318	2
11321	11316	11318	11317	2
11323	11320	11316	11315	2
11322	11318	11320	11319	2
11324	11315	11319	11320	2
3432	3433	3421	3434	2
3431	3430	3423	9446	2
3432	3422	3420	3421	2
3430	3424	3422	3423	2
3426	3423	3421	3422	2
3428	3425	3421	3420	2
3427	3425	3423	3424	2
3429	3424	3420	3425	2
2142	2141	2130	2118	2
2140	2139	2132	9257	2
2141	2129	2131	2130	2
2139	2133	2131	2132	2
2135	2130	2132	2131	2
2137	2134	2130	2129	2
2136	2134	2132	2133	2
2138	2129	2133	2134	2
3747	3749	3736	3748	2
3746	3745	3738	11157	2
3747	3737	3735	3736	2
3745	3737	3739	3738	2
3741	3736	3738	3737	2
3743	3740	3736	3735	2
3742	3738	3740	3739	2
3744	3735	3739	3740	2
8997	8996	8985	9004	2
8995	8994	8987	6538	2
8996	8986	8984	8985	2
8994	8986	8988	8987	2
8990	8985	8987	8986	2
8992	8985	8989	8984	2
8991	8987	8989	8988	2
8993	8984	8988	8989	2
1740	1739	1728	8024	2
1738	1737	1730	1716	2
1739	1729	1727	1728	2
1737	1731	1729	1730	2
1733	1728	1730	1729	2
1735	1732	1728	1727	2
1734	1730	1732	1731	2
1736	1731	1727	1732	2
8542	8541	8534	8551	2
8544	8543	8532	5406	2
8541	8535	8533	8534	2
8543	8533	8531	8532	2
8537	8534	8532	8533	2
8538	8536	8534	8535	2
8539	8536	8532	8531	2
8540	8531	8535	8536	2
12126	12125	12114	11053	2
12124	12123	12116	5565	2
12125	12113	12115	12114	2
12123	12115	12117	12116	2
12119	12116	12114	12115	2
12121	12118	12114	12113	2
12120	12116	12118	12117	2
12122	12117	12113	12118	2
11594	11593	11582	11141	2
11592	11591	11584	4562	2
11593	11583	11581	11582	2
11591	11583	11585	11584	2
11587	11582	11584	11583	2
11589	11586	11582	11581	2
11588	11586	11584	11585	2
11590	11585	11581	11586	2
13120	13119	13108	7854	2
13118	13117	13110	8863	2
13119	13107	13109	13108	2
13117	13109	13111	13110	2
13113	13108	13110	13109	2
13115	13112	13108	13107	2
13114	13110	13112	13111	2
13116	13107	13111	13112	2
2697	2699	2686	2698	2
2696	2695	2688	4383	2
2697	2687	2686	2685	2
2695	2687	2689	2688	2
2691	2686	2688	2687	2
2693	2690	2686	2685	2
2692	2690	2688	2689	2
2694	2685	2689	2690	2
6094	6093	6082	7578	2
6092	6091	6084	6106	2
6093	6083	6081	6082	2
6091	6083	6085	6084	2
6087	6084	6082	6083	2
6089	6086	6082	6081	2
6088	6084	6086	6085	2
6090	6085	6081	6086	2
13652	13651	13640	9972	2
13650	13649	13642	10336	2
13651	13639	13641	13640	2
13649	13641	13643	13642	2
13645	13642	13640	13641	2
13647	13640	13644	13639	2
13646	13642	13644	13643	2
13648	13643	13639	13644	2
3192	3193	3181	3194	2
3191	3190	3183	8425	2
3192	3182	3180	3181	2
3190	3182	3184	3183	2
3186	3181	3183	3182	2
3188	3181	3185	3180	2
3187	3185	3183	3184	2
3189	3180	3184	3185	2
3146	3145	3138	8102	2
3147	3148	3136	3149	2
3145	3139	3137	3138	2
3147	3135	3137	3136	2
3141	3138	3136	3137	2
3142	3140	3138	3139	2
3143	3136	3140	3135	2
3144	3139	3135	3140	2
13694	13693	13682	11039	2
13692	13691	13684	10498	2
13693	13683	13681	13682	2
13691	13683	13685	13684	2
13687	13684	13682	13683	2
13689	13686	13682	13681	2
13688	13686	13684	13685	2
13690	13685	13681	13686	2
3221	3220	3213	8572	2
3222	3223	3211	3224	2
3220	3212	3214	3213	2
3222	3210	3212	3211	2
3216	3213	3211	3212	2
3217	3215	3213	3214	2
3218	3211	3215	3210	2
3219	3210	3214	3215	2
11026	11025	11014	11033	2
11024	11023	11016	1103	2
11025	11015	11013	11014	2
11023	11017	11015	11016	2
11019	11014	11016	11015	2
11021	11014	11018	11013	2
11020	11018	11016	11017	2
11022	11013	11017	11018	2
12602	12601	12590	7213	2
12600	12599	12592	6310	2
12601	12589	12591	12590	2
12599	12591	12593	12592	2
12595	12590	12592	12591	2
12597	12590	12594	12589	2
12596	12594	12592	12593	2
12598	12593	12589	12594	2
12084	12083	12072	5508	2
12082	12081	12074	9899	2
12083	12073	12071	12072	2
12081	12075	12073	12074	2
12077	12072	12074	12073	2
12079	12076	12072	12071	2
12078	12076	12074	12075	2
12080	12075	12071	12076	2
3267	3269	3256	3268	2
3266	3265	3258	8893	2
3267	3257	3255	3256	2
3265	3257	3259	3258	2
3261	3258	3256	3257	2
3263	3260	3256	3255	2
3262	3258	3260	3259	2
3264	3255	3259	3260	2
12868	12867	12856	9374	2
12866	12865	12858	7069	2
12867	12855	12857	12856	2
12865	12857	12859	12858	2
12861	12856	12858	12857	2
12863	12856	12860	12855	2
12862	12860	12858	12859	2
12864	12859	12855	12860	2
8177	8176	8165	8184	2
8175	8174	8167	9543	2
8176	8164	8166	8165	2
8174	8166	8168	8167	2
8170	8165	8167	8166	2
8172	8169	8165	8164	2
8171	8169	8167	8168	2
8173	8164	8168	8169	2
11578	11577	11570	5932	2
11580	11579	11568	4563	2
11577	11571	11569	11570	2
11579	11567	11569	11568	2
11573	11568	11570	11569	2
11574	11572	11570	11571	2
11575	11568	11572	11567	2
11576	11571	11567	11572	2
12280	12279	12268	5771	2
12278	12277	12270	6165	2
12279	12269	12267	12268	2
12277	12269	12271	12270	2
12273	12268	12269	12270	2
12275	12268	12272	12267	2
12274	12272	12270	12271	2
12276	12271	12267	12272	2
13554	13553	13542	9068	2
13552	13551	13544	10644	2
13553	13541	13543	13542	2
13551	13545	13543	13544	2
13547	13544	13542	13543	2
13549	13546	13542	13541	2
13548	13546	13544	13545	2
13550	13545	13541	13546	2
3026	3025	3018	7034	2
3027	3028	3016	3029	2
3025	3019	3017	3018	2
3027	3017	3015	3016	2
3021	3016	3018	3017	2
3022	3020	3018	3019	2
3023	3020	3016	3015	2
3024	3015	3019	3020	2
8690	8689	8678	5741	2
8688	8687	8680	8697	2
8689	8679	8677	8678	2
8687	8679	8681	8680	2
8683	8678	8680	8679	2
8685	8678	8682	8677	2
8684	8682	8680	8681	2
8686	8677	8681	8682	2
5714	5713	5702	5721	2
5712	5711	5704	4708	2
5713	5701	5703	5702	2
5711	5703	5705	5704	2
5707	5704	5702	5703	2
5709	5706	5702	5701	2
5708	5704	5706	5705	2
5710	5701	5705	5706	2
1925	1924	1913	10745	2
1923	1922	1915	1901	2
1924	1912	1914	1913	2
1922	1916	1914	1915	2
1918	1915	1913	1914	2
1920	1917	1913	1912	2
1919	1917	1915	1916	2
1921	1912	1916	1917	2
6036	6035	6024	7223	2
6034	6033	6026	6043	2
6035	6023	6025	6024	2
6033	6027	6025	6026	2
6029	6024	6026	6025	2
6031	6028	6024	6023	2
6030	6028	6026	6027	2
6032	6023	6027	6028	2
13792	13791	13780	640	2
13790	13789	13782	1598	2
13791	13781	13779	13780	2
13789	13781	13783	13782	2
13785	13782	13780	13781	2
13787	13780	13784	13779	2
13786	13784	13782	13783	2
13788	13779	13783	13784	2
2936	2935	2928	6543	2
2937	2939	2926	2938	2
2935	2927	2929	2928	2
2937	2927	2925	2926	2
2931	2926	2928	2927	2
2932	2928	2930	2929	2
2933	2930	2926	2925	2
2934	2925	2929	2930	2
9303	9302	9291	9310	2
9301	9300	9293	4673	2
9302	9290	9292	9291	2
9300	9294	9292	9293	2
9296	9293	9291	9292	2
9298	9291	9295	9290	2
9297	9295	9293	9294	2
9299	9290	9294	9295	2
5493	5492	5485	4955	2
5495	5494	5483	5502	2
5492	5486	5484	5485	2
5494	5482	5484	5483	2
5488	5483	5485	5484	2
5489	5485	5487	5486	2
5490	5483	5487	5482	2
5491	5482	5486	5487	2
13092	13091	13080	7709	2
13090	13089	13082	10804	2
13091	13079	13081	13080	2
13089	13083	13081	13082	2
13085	13080	13082	13081	2
13087	13084	13080	13079	2
13086	13084	13082	13083	2
13088	13079	13083	13084	2
12420	12419	12408	9373	2
12418	12417	12410	5976	2
12419	12409	12407	12408	2
12417	12410	12409	12411	2
12413	12410	12409	12408	2
12415	12412	12408	12407	2
12414	12410	12412	12411	2
12416	12411	12407	12412	2
10821	10820	10809	6975	2
10819	10818	10811	10828	2
10820	10808	10810	10809	2
10818	10812	10810	10811	2
10814	10809	10811	10810	2
10816	10809	10813	10808	2
10815	10813	10811	10812	2
10817	10808	10812	10813	2
2817	2819	2806	2818	2
2816	2815	2808	5405	2
2817	2805	2807	2806	2
2815	2809	2807	2808	2
2811	2806	2808	2807	2
2813	2806	2810	2805	2
2812	2810	2808	2809	2
2814	2805	2809	2810	2
13484	13483	13472	9826	2
13482	13481	13474	8835	2
13483	13473	13471	13472	2
13481	13473	13475	13474	2
13477	13474	13472	13473	2
13479	13472	13476	13471	2
13478	13476	13474	13475	2
13480	13471	13475	13476	2
9739	9738	9731	9798	2
9741	9740	9729	9748	2
9738	9732	9730	9731	2
9740	9728	9730	9729	2
9734	9731	9729	9730	2
9735	9733	9731	9732	2
9736	9729	9733	9728	2
9737	9728	9732	9733	2
11244	11243	11232	3895	2
11242	11241	11234	6588	2
11243	11231	11233	11232	2
11241	11233	11235	11234	2
11237	11232	11234	11233	2
11239	11236	11232	11231	2
11238	11236	11234	11235	2
11240	11235	11231	11236	2
11508	11507	11500	9884	2
11510	11509	11498	4374	2
11507	11501	11499	11500	2
11509	11499	11497	11498	2
11503	11500	11498	11499	2
11504	11500	11502	11501	2
11505	11498	11502	11497	2
11506	11501	11497	11502	2
2667	2668	2656	2669	2
2666	2665	2658	4272	2
2667	2657	2655	2656	2
2665	2659	2657	2658	2
2661	2658	2656	2657	2
2663	2656	2660	2655	2
2662	2658	2660	2659	2
2664	2655	2659	2660	2
3132	3134	3121	3133	2
3131	3130	3123	8087	2
3132	3122	3120	3121	2
3130	3124	3122	3123	2
3126	3123	3121	3122	2
3128	3125	3121	3120	2
3127	3123	3125	3124	2
3129	3124	3120	3125	2
13330	13329	13318	8279	2
13328	13327	13320	9141	2
13329	13317	13319	13318	2
13327	13321	13319	13320	2
13323	13320	13318	13319	2
13325	13322	13318	13317	2
13324	13322	13320	13321	2
13326	13317	13321	13322	2
5787	5786	5775	7257	2
5785	5784	5777	5794	2
5786	5776	5774	5775	2
5784	5776	5778	5777	2
5780	5775	5777	5776	2
5782	5775	5779	5774	2
5781	5779	5777	5778	2
5783	5774	5778	5779	2
9785	9784	9773	9792	2
9783	9782	9775	8454	2
9784	9774	9772	9773	2
9782	9776	9774	9775	2
9778	9773	9775	9774	2
9780	9773	9777	9772	2
9779	9777	9775	9776	2
9781	9772	9776	9777	2
10294	10293	10282	10301	2
10292	10291	10284	8029	2
10293	10281	10283	10282	2
10291	10285	10283	10284	2
10287	10284	10282	10283	2
10289	10281	10286	10282	2
10288	10284	10286	10285	2
10290	10281	10285	10286	2
12952	12951	12940	7389	2
12950	12949	12942	10001	2
12951	12939	12941	12940	2
12949	12943	12941	12942	2
12945	12940	12942	12941	2
12947	12940	12944	12939	2
12946	12944	12942	12943	2
12948	12943	12939	12944	2
3041	3040	3033	7315	2
3042	3044	3031	3043	2
3040	3034	3032	3033	2
3042	3030	3032	3031	2
3036	3031	3033	3032	2
3037	3035	3033	3034	2
3038	3035	3031	3030	2
3039	3030	3034	3035	2
10219	10218	10211	8892	2
10221	10220	10209	10228	2
10218	10210	10212	10211	2
10220	10210	10208	10209	2
10214	10209	10211	10210	2
10215	10213	10211	10212	2
10216	10209	10213	10208	2
10217	10208	10212	10213	2
2877	2878	2866	2879	2
2876	2875	2868	5736	2
2877	2867	2865	2866	2
2875	2869	2867	2868	2
2871	2866	2868	2867	2
2873	2866	2870	2865	2
2872	2868	2870	2869	2
2874	2865	2869	2870	2
4840	4839	4828	4862	2
4838	4837	4830	4847	2
4839	4829	4827	4828	2
4837	4829	4831	4830	2
4833	4828	4830	4829	2
4835	4828	4832	4827	2
4834	4832	4830	4831	2
4836	4827	4831	4832	2
6298	6297	6286	6485	2
6296	6295	6288	6305	2
6297	6287	6285	6286	2
6295	6289	6287	6288	2
6291	6286	6288	6287	2
6293	6290	6286	6285	2
6292	6290	6288	6289	2
6294	6285	6289	6290	2
12616	12615	12604	1809	2
12614	12613	12606	6325	2
12615	12603	12605	12604	2
12613	12607	12605	12606	2
12609	12604	12606	12605	2
12611	12604	12608	12603	2
12610	12608	12606	12607	2
12612	12607	12603	12608	2
5758	5757	5746	9855	2
5756	5755	5748	5765	2
5757	5747	5745	5746	2
5755	5747	5749	5748	2
5751	5748	5746	5747	2
5753	5746	5750	5745	2
5752	5750	5748	5749	2
5754	5745	5749	5750	2
8471	8470	8459	5463	2
8469	8468	8461	8478	2
8470	8458	8460	8459	2
8468	8462	8460	8461	2
8464	8461	8459	8460	2
8466	8459	8463	8458	2
8465	8463	8461	8462	2
8467	8462	8458	8463	2
1955	1957	1944	1956	2
1954	1953	1946	1932	2
1955	1943	1945	1944	2
1953	1945	1947	1946	2
1949	1944	1946	1945	2
1951	1944	1948	1943	2
1950	1946	1948	1947	2
1952	1943	1947	1948	2
7172	7171	7160	6427	2
7170	7169	7162	7184	2
7171	7159	7161	7160	2
7169	7163	7161	7162	2
7165	7160	7162	7161	2
7167	7160	7164	7159	2
7166	7162	7164	7163	2
7168	7163	7159	7164	2
5422	5421	5410	5429	2
5420	5419	5412	10672	2
5421	5411	5409	5410	2
5419	5411	5413	5412	2
5415	5410	5412	5411	2
5417	5414	5410	5409	2
5416	5412	5414	5413	2
5418	5409	5413	5414	2
12686	12685	12674	7155	2
12684	12683	12676	6515	2
12685	12675	12673	12674	2
12683	12677	12675	12676	2
12679	12676	12674	12675	2
12681	12674	12678	12673	2
12680	12678	12676	12677	2
12682	12677	12673	12678	2
7420	7419	7408	9403	2
7418	7417	7410	7427	2
7419	7407	7409	7408	2
7417	7409	7411	7410	2
7413	7408	7410	7409	2
7415	7412	7408	7407	2
7414	7410	7412	7411	2
7416	7407	7411	7412	2
10192	10191	10180	1322	2
10190	10189	10182	10199	2
10191	10179	10181	10180	2
10189	10183	10181	10182	2
10185	10180	10182	10181	2
10187	10184	10180	10179	2
10186	10184	10182	10183	2
10188	10179	10183	10184	2
11972	11971	11960	5217	2
11970	11969	11962	2306	2
11971	11959	11961	11960	2
11969	11961	11963	11962	2
11965	11960	11962	11961	2
11967	11960	11964	11959	2
11966	11964	11962	11963	2
11968	11959	11963	11964	2
8661	8660	8649	8668	2
8659	8658	8651	9345	2
8660	8650	8648	8649	2
8658	8650	8652	8651	2
8654	8651	8649	8650	2
8656	8653	8649	8648	2
8655	8651	8653	8652	2
8657	8648	8652	8653	2
6181	6180	6169	7398	2
6179	6178	6171	6188	2
6180	6170	6168	6169	2
6178	6171	6172	6170	2
6174	6171	6169	6170	2
6176	6169	6173	6168	2
6175	6172	6171	6173	2
6177	6168	6172	6173	2
11900	11899	11892	5101	2
11902	11901	11890	10557	2
11899	11891	11893	11892	2
11901	11889	11891	11890	2
11895	11890	11892	11891	2
11896	11894	11892	11893	2
11897	11894	11890	11889	2
11898	11889	11893	11894	2
7012	7011	7000	7019	2
7010	7009	7002	5056	2
7011	7001	6999	7000	2
7009	7003	7001	7002	2
7005	7002	7000	7001	2
7007	7000	7004	6999	2
7006	7002	7004	7003	2
7008	7003	6999	7004	2
4259	4258	4247	4266	2
4257	4256	4249	7345	2
4258	4246	4248	4247	2
4256	4248	4250	4249	2
4252	4249	4247	4248	2
4254	4251	4247	4246	2
4253	4249	4251	4250	2
4255	4246	4250	4251	2
8880	8879	8868	8887	2
8878	8877	8870	9631	2
8879	8869	8867	8868	2
8877	8871	8869	8870	2
8873	8868	8870	8869	2
8875	8868	8872	8867	2
8874	8870	8872	8871	2
8876	8867	8871	8872	2
6531	6530	6519	6544	2
6529	6528	6521	9753	2
6530	6518	6520	6519	2
6528	6522	6520	6521	2
6524	6521	6519	6520	2
6526	6519	6523	6518	2
6525	6521	6523	6522	2
6527	6518	6522	6523	2
10134	10133	10122	5507	2
10132	10131	10124	10146	2
10133	10123	10121	10122	2
10131	10125	10123	10124	2
10127	10122	10124	10123	2
10129	10122	10126	10121	2
10128	10124	10126	10125	2
10130	10125	10121	10126	2
12992	12991	12984	1415	2
12994	12993	12982	7432	2
12991	12985	12983	12984	2
12993	12981	12983	12982	2
12987	12984	12982	12983	2
12988	12984	12986	12985	2
12989	12986	12982	12981	2
12990	12985	12981	12986	2
8924	8923	8912	10272	2
8922	8921	8914	8931	2
8923	8913	8911	8912	2
8921	8915	8913	8914	2
8917	8914	8912	8913	2
8919	8916	8912	8911	2
8918	8916	8914	8915	2
8920	8911	8915	8916	2
9156	9155	9148	10204	2
9158	9157	9146	9165	2
9155	9149	9147	9148	2
9157	9145	9147	9146	2
9151	9148	9146	9147	2
9152	9148	9150	9149	2
9153	9150	9146	9145	2
9154	9145	9149	9150	2
13456	13455	13444	8806	2
13454	13453	13446	1011	2
13455	13443	13445	13444	2
13453	13447	13445	13446	2
13449	13444	13446	13445	2
13451	13448	13444	13443	2
13450	13446	13448	13447	2
13452	13443	13447	13448	2
3521	3520	3513	9768	2
3522	3523	3511	3524	2
3520	3514	3512	3513	2
3522	3512	3510	3511	2
3516	3513	3511	3512	2
3517	3513	3515	3514	2
3518	3511	3515	3510	2
3519	3514	3510	3515	2
12588	12587	12576	9083	2
12586	12585	12578	6311	2
12587	12575	12577	12576	2
12585	12577	12579	12578	2
12581	12578	12576	12577	2
12583	12580	12576	12575	2
12582	12580	12578	12579	2
12584	12575	12579	12580	2
13316	13315	13304	10306	2
13314	13313	13306	8263	2
13315	13303	13305	13304	2
13313	13307	13305	13306	2
13309	13304	13306	13305	2
13311	13304	13308	13303	2
13310	13306	13308	13307	2
13312	13303	13307	13308	2
7871	7870	7859	7878	2
7869	7868	7861	6369	2
7870	7858	7860	7859	2
7868	7861	7862	7860	2
7864	7859	7861	7860	2
7866	7859	7863	7858	2
7865	7861	7862	7863	2
7867	7858	7862	7863	2
12210	12209	12198	5902	2
12208	12207	12200	5640	2
12209	12197	12199	12198	2
12207	12199	12201	12200	2
12203	12198	12200	12199	2
12205	12202	12198	12197	2
12204	12200	12202	12201	2
12206	12201	12197	12202	2
11468	11467	11456	6996	2
11466	11465	11458	4286	2
11467	11457	11455	11456	2
11465	11457	11459	11458	2
11461	11456	11458	11457	2
11463	11456	11460	11455	2
11462	11460	11458	11459	2
11464	11455	11459	11460	2
13372	13371	13360	8382	2
13370	13369	13362	486	2
13371	13361	13359	13360	2
13369	13361	13363	13362	2
13365	13360	13362	13361	2
13367	13360	13364	13359	2
13366	13362	13364	13363	2
13368	13363	13359	13364	2
4811	4810	4799	2259	2
4809	4808	4801	4818	2
4810	4800	4798	4799	2
4808	4802	4800	4801	2
4804	4801	4799	4800	2
4806	4798	4799	4803	2
4805	4803	4801	4802	2
4807	4802	4798	4803	2
192	191	180	170	2
190	189	182	6326	2
191	179	181	180	2
189	183	181	182	2
185	182	180	181	2
187	180	184	179	2
186	182	184	183	2
188	183	179	184	2
5451	5450	5439	5458	2
5449	5448	5441	9725	2
5450	5440	5438	5439	2
5448	5441	5442	5440	2
5444	5441	5439	5440	2
5446	5443	5439	5438	2
5445	5441	5443	5442	2
5447	5442	5438	5443	2
6210	6209	6198	11009	2
6208	6207	6200	6217	2
6209	6199	6197	6198	2
6207	6199	6201	6200	2
6203	6198	6200	6199	2
6205	6198	6202	6197	2
6204	6200	6202	6201	2
6206	6201	6197	6202	2
2712	2713	2701	2714	2
2711	2710	2703	4534	2
2712	2702	2700	2701	2
2710	2704	2702	2703	2
2706	2703	2701	2702	2
2708	2705	2701	2700	2
2707	2703	2705	2704	2
2709	2700	2704	2705	2
12714	12713	12702	6587	2
12712	12711	12704	8161	2
12713	12701	12703	12702	2
12711	12705	12703	12704	2
12707	12702	12704	12703	2
12709	12706	12702	12701	2
12708	12706	12704	12705	2
12710	12701	12705	12706	2
3777	3779	3766	3778	2
3776	3775	3768	2073	2
3777	3767	3765	3766	2
3775	3767	3769	3768	2
3771	3766	3768	3767	2
3773	3766	3770	3765	2
3772	3769	3770	3768	2
3774	3770	3769	3765	2
13288	13287	13276	8248	2
13286	13285	13278	1875	2
13287	13275	13277	13276	2
13285	13279	13277	13278	2
13281	13278	13276	13277	2
13283	13276	13280	13275	2
13282	13280	13278	13279	2
13284	13279	13275	13280	2
2771	2770	2763	5100	2
2772	2773	2761	2774	2
2770	2764	2762	2763	2
2772	2762	2760	2761	2
2766	2761	2763	2762	2
2767	2765	2763	2764	2
2768	2761	2765	2760	2
2769	2764	2760	2765	2
9712	9711	9700	10233	2
9710	9709	9702	9719	2
9711	9699	9701	9700	2
9709	9701	9703	9702	2
9705	9700	9702	9701	2
9707	9704	9700	9699	2
9706	9704	9702	9703	2
9708	9699	9703	9704	2
12292	12291	12284	5799	2
12294	12293	12282	7258	2
12291	12285	12283	12284	2
12293	12283	12281	12282	2
12287	12282	12284	12283	2
12288	12284	12286	12285	2
12289	12282	12286	12281	2
12290	12285	12281	12286	2
13106	13105	13094	9281	2
13104	13103	13096	7796	2
13105	13093	13095	13094	2
13103	13097	13095	13096	2
13099	13096	13094	13095	2
13101	13094	13098	13093	2
13100	13096	13098	13097	2
13102	13097	13093	13098	2
6473	6472	6461	4476	2
6471	6470	6463	6480	2
6472	6462	6460	6461	2
6470	6463	6464	6462	2
6466	6461	6463	6462	2
6468	6465	6461	6460	2
6467	6463	6465	6464	2
6469	6460	6464	6465	2
6808	6807	6796	10278	2
6806	6805	6798	6815	2
6807	6795	6797	6796	2
6805	6797	6799	6798	2
6801	6798	6796	6797	2
6803	6796	6800	6795	2
6802	6798	6800	6799	2
6804	6795	6799	6800	2
2831	2830	2823	5473	2
2832	2834	2821	2833	2
2830	2822	2824	2823	2
2832	2820	2822	2821	2
2826	2823	2821	2822	2
2827	2825	2823	2824	2
2828	2821	2825	2820	2
2829	2824	2820	2825	2
1631	1630	1619	6398	2
1629	1628	1621	1632	2
1630	1620	1618	1619	2
1628	1622	1620	1621	2
1624	1621	1619	1620	2
1626	1623	1618	1619	2
1625	1621	1623	1622	2
1627	1618	1623	1622	2
7332	7331	7320	7339	2
7330	7329	7322	8731	2
7331	7319	7321	7320	2
7329	7323	7321	7322	2
7325	7320	7322	7321	2
7327	7320	7324	7319	2
7326	7322	7324	7323	2
7328	7323	7319	7324	2
12518	12517	12506	10526	2
12516	12515	12508	6194	2
12517	12507	12505	12506	2
12515	12509	12507	12508	2
12511	12508	12506	12507	2
12513	12506	12510	12505	2
12512	12510	12508	12509	2
12514	12509	12505	12510	2
1151	1150	1143	1129	2
1153	1152	1141	6747	2
1150	1142	1144	1143	2
1152	1142	1140	1141	2
1146	1143	1141	1142	2
1147	1143	1145	1144	2
1148	1145	1141	1140	2
1149	1140	1144	1145	2
11314	11313	11302	4069	2
11312	11311	11304	6820	2
11313	11301	11303	11302	2
11311	11303	11305	11304	2
11307	11304	11302	11303	2
11309	11306	11302	11301	2
11308	11304	11306	11305	2
11310	11305	11306	11301	2
1061	1060	1049	1037	2
1059	1058	1051	1160	2
1060	1048	1050	1049	2
1058	1052	1050	1051	2
1054	1051	1049	1050	2
1056	1053	1049	1048	2
1055	1053	1051	1052	2
1057	1052	1048	1053	2
13204	13203	13192	8557	2
13202	13201	13194	8131	2
13203	13193	13192	13191	2
13201	13193	13195	13194	2
13197	13192	13194	13193	2
13199	13192	13196	13191	2
13198	13194	13196	13195	2
13200	13195	13191	13196	2
8293	8292	8285	8302	2
8295	8294	8283	11078	2
8292	8286	8284	8285	2
8294	8282	8284	8283	2
8288	8285	8283	8284	2
8289	8287	8285	8286	2
8290	8283	8287	8282	2
8291	8286	8282	8287	2
9361	9360	9349	9368	2
9359	9358	9351	9171	2
9360	9350	9348	9349	2
9358	9350	9352	9351	2
9354	9349	9351	9350	2
9356	9349	9353	9348	2
9355	9351	9353	9352	2
9357	9348	9352	9353	2
5889	5888	5877	8264	2
5887	5886	5879	5896	2
5888	5878	5876	5877	2
5886	5878	5880	5879	2
5882	5877	5879	5878	2
5884	5877	5881	5876	2
5883	5881	5879	5880	2
5885	5880	5876	5881	2
2892	2893	2881	2894	2
2891	2890	2883	5770	2
2892	2880	2882	2881	2
2890	2882	2884	2883	2
2886	2883	2881	2882	2
2888	2885	2881	2880	2
2887	2885	2883	2884	2
2889	2880	2884	2885	2
4884	4883	4872	4891	2
4882	4881	4874	10335	2
4883	4873	4871	4872	2
4881	4873	4875	4874	2
4877	4874	4872	4873	2
4879	4872	4876	4871	2
4878	4874	4876	4875	2
4880	4871	4875	4876	2
7054	7053	7046	6457	2
7056	7055	7044	7063	2
7053	7047	7045	7046	2
7055	7045	7043	7044	2
7049	7044	7046	7045	2
7050	7048	7046	7047	2
7051	7048	7044	7043	2
7052	7047	7043	7048	2
12532	12531	12520	6222	2
12530	12529	12522	9797	2
12531	12519	12521	12520	2
12529	12523	12521	12522	2
12525	12520	12522	12521	2
12527	12520	12524	12519	2
12526	12524	12522	12523	2
12528	12523	12519	12524	2
9216	9215	9204	9223	2
9214	9213	9206	10586	2
9215	9203	9205	9204	2
9213	9207	9205	9206	2
9209	9206	9204	9205	2
9211	9204	9208	9203	2
9210	9206	9208	9207	2
9212	9203	9207	9208	2
7697	7696	7685	7704	2
7695	7694	7687	10551	2
7696	7684	7686	7685	2
7694	7686	7688	7687	2
7690	7685	7687	7686	2
7692	7689	7685	7684	2
7691	7687	7689	7688	2
7693	7688	7684	7689	2
3461	3460	3453	9549	2
3462	3463	3451	3464	2
3460	3452	3454	3453	2
3462	3452	3450	3451	2
3456	3453	3451	3452	2
3457	3455	3453	3454	2
3458	3455	3451	3450	2
3459	3450	3454	3455	2
11860	11859	11848	6923	2
11858	11857	11850	4984	2
11859	11849	11847	11848	2
11857	11849	11851	11850	2
11853	11848	11850	11849	2
11855	11848	11847	11852	2
11854	11852	11850	11851	2
11856	11851	11847	11852	2
3761	3760	3753	11171	2
3762	3764	3751	3763	2
3760	3754	3752	3753	2
3762	3750	3752	3751	2
3756	3753	3751	3752	2
3757	3753	3755	3754	2
3758	3755	3751	3750	2
3759	3754	3750	3755	2
3492	3493	3481	3494	2
3491	3490	3483	9593	2
3492	3482	3480	3481	2
3490	3482	3484	3483	2
3486	3483	3481	3482	2
3488	3481	3485	3480	2
3487	3483	3485	3484	2
3489	3484	3480	3485	2
2250	2249	2242	2228	2
2252	2251	2240	9558	2
2249	2241	2243	2242	2
2251	2241	2239	2240	2
2245	2240	2242	2241	2
2246	2244	2242	2243	2
2247	2244	2240	2239	2
2248	2243	2239	2244	2
3882	3881	3870	7500	2
3880	3879	3872	3889	2
3881	3869	3871	3870	2
3879	3873	3871	3872	2
3875	3872	3870	3871	2
3877	3874	3870	3869	2
3876	3872	3874	3873	2
3878	3873	3869	3874	2
12462	12461	12450	6456	2
12460	12459	12452	6019	2
12461	12449	12451	12450	2
12459	12451	12453	12452	2
12455	12450	12452	12451	2
12457	12454	12450	12449	2
12456	12452	12454	12453	2
12458	12453	12449	12454	2
8515	8514	8503	9441	2
8513	8512	8505	8522	2
8514	8502	8504	8503	2
8512	8504	8506	8505	2
8508	8505	8503	8504	2
8510	8507	8503	8502	2
8509	8507	8505	8506	2
8511	8502	8506	8507	2
11762	11761	11750	4823	2
11760	11759	11752	10585	2
11761	11751	11749	11750	2
11759	11753	11751	11752	2
11755	11752	11750	11751	2
11757	11750	11754	11749	2
11756	11752	11754	11753	2
11758	11753	11749	11754	2
13442	13441	13430	8674	2
13440	13439	13432	10477	2
13441	13431	13429	13430	2
13439	13431	13433	13432	2
13435	13430	13432	13431	2
13437	13430	13434	13429	2
13436	13432	13434	13433	2
13438	13433	13429	13434	2
3116	3115	3108	7826	2
3117	3119	3106	3118	2
3115	3109	3107	3108	2
3117	3105	3107	3106	2
3111	3107	3108	3106	2
3112	3110	3108	3109	2
3113	3106	3110	3105	2
3114	3109	3105	3110	2
3627	3628	3616	3629	2
3626	3625	3618	10789	2
3627	3617	3615	3616	2
3625	3617	3619	3618	2
3621	3616	3618	3617	2
3623	3616	3620	3615	2
3622	3620	3618	3619	2
3624	3615	3619	3620	2
12070	12069	12058	7825	2
12068	12067	12060	5479	2
12069	12059	12057	12058	2
12067	12059	12061	12060	2
12063	12058	12060	12059	2
12065	12058	12062	12057	2
12064	12062	12060	12061	2
12066	12061	12057	12062	2
13174	13173	13166	8630	2
13176	13175	13164	7986	2
13173	13165	13167	13166	2
13175	13163	13165	13164	2
13169	13164	13166	13165	2
13170	13168	13166	13167	2
13171	13168	13164	13163	2
13172	13163	13167	13168	2
6065	6064	6053	6072	2
6063	6062	6055	6320	2
6064	6052	6054	6053	2
6062	6056	6054	6055	2
6058	6055	6053	6054	2
6060	6053	6057	6052	2
6059	6055	6057	6056	2
6061	6052	6056	6057	2
3551	3550	3543	9928	2
3552	3553	3541	3554	2
3550	3542	3544	3543	2
3552	3540	3542	3541	2
3546	3541	3543	3542	2
3547	3545	3543	3544	2
3548	3541	3545	3540	2
3549	3544	3540	3545	2
8442	8441	8430	8449	2
8440	8439	8432	5625	2
8441	8431	8429	8430	2
8439	8433	8431	8432	2
8435	8432	8430	8431	2
8437	8434	8430	8429	2
8436	8432	8434	8433	2
8438	8429	8433	8434	2
7476	7475	7468	8317	2
7478	7477	7466	7485	2
7475	7467	7469	7468	2
7477	7465	7467	7466	2
7471	7466	7468	7467	2
7472	7470	7468	7469	2
7473	7470	7466	7465	2
7474	7465	7469	7470	2
13272	13271	13264	10862	2
13274	13273	13262	8204	2
13271	13263	13265	13264	2
13273	13261	13263	13262	2
13267	13262	13264	13263	2
13268	13264	13266	13265	2
13269	13262	13266	13261	2
13270	13265	13261	13266	2
4608	4607	4596	4615	2
4606	4605	4598	6232	2
4607	4595	4597	4596	2
4605	4597	4599	4598	2
4601	4596	4598	4597	2
4603	4596	4600	4595	2
4602	4600	4598	4599	2
4604	4595	4599	4600	2
13748	13747	13740	11084	2
13750	13749	13738	10935	2
13747	13739	13741	13740	2
13749	13739	13737	13738	2
13743	13738	13740	13739	2
13744	13740	13742	13741	2
13745	13742	13738	13737	2
13746	13741	13737	13742	2
13260	13259	13248	10760	2
13258	13257	13250	8205	2
13259	13247	13249	13248	2
13257	13249	13251	13250	2
13253	13250	13248	13249	2
13255	13252	13248	13247	2
13254	13250	13252	13251	2
13256	13251	13247	13252	2
2050	2049	2038	2026	2
2048	2047	2040	10746	2
2049	2039	2037	2038	2
2047	2039	2041	2040	2
2043	2038	2040	2039	2
2045	2042	2038	2037	2
2044	2041	2040	2042	2
2046	2041	2037	2042	2
12054	12053	12046	5464	2
12056	12055	12044	10395	2
12053	12045	12047	12046	2
12055	12043	12045	12044	2
12049	12044	12046	12045	2
12050	12046	12048	12047	2
12051	12048	12044	12043	2
12052	12043	12047	12048	2
4492	4491	4480	8528	2
4490	4489	4482	4499	2
4491	4480	4481	4479	2
4489	4483	4481	4482	2
4485	4480	4482	4481	2
4487	4480	4484	4479	2
4486	4484	4482	4483	2
4488	4479	4483	4484	2
935	934	927	8214	2
937	936	925	913	2
934	928	926	927	2
936	924	926	925	2
930	925	927	926	2
931	927	929	928	2
932	929	925	924	2
933	928	924	929	2
2922	2923	2911	2924	2
2921	2920	2913	6005	2
2922	2910	2912	2911	2
2920	2912	2914	2913	2
2916	2911	2913	2912	2
2918	2911	2915	2910	2
2917	2915	2913	2914	2
2919	2914	2910	2915	2
5992	5991	5980	5999	2
5990	5989	5982	6282	2
5991	5981	5979	5980	2
5989	5981	5983	5982	2
5985	5980	5982	5981	2
5987	5980	5984	5979	2
5986	5984	5982	5983	2
5988	5979	5983	5984	2
12882	12881	12870	7097	2
12880	12879	12872	10364	2
12881	12871	12869	12870	2
12879	12871	12873	12872	2
12875	12870	12872	12871	2
12877	12874	12870	12869	2
12876	12874	12873	12872	2
12878	12874	12873	12869	2
3671	3670	3663	10980	2
3672	3673	3661	3674	2
3670	3664	3662	3663	2
3672	3662	3660	3661	2
3666	3663	3661	3662	2
3667	3665	3663	3664	2
3668	3665	3661	3660	2
3669	3660	3664	3665	2
3716	3715	3708	11004	2
3717	3719	3706	3718	2
3715	3709	3708	3707	2
3717	3706	3705	3707	2
3711	3708	3706	3707	2
3712	3708	3710	3709	2
3713	3710	3706	3705	2
3714	3709	3705	3710	2
4403	4402	4395	4412	2
4405	4404	4393	10995	2
4402	4396	4394	4395	2
4404	4394	4392	4393	2
4398	4395	4393	4394	2
4399	4397	4395	4396	2
4400	4393	4397	4392	2
4401	4396	4392	4397	2
5656	5655	5644	7797	2
5654	5653	5646	5663	2
5655	5645	5643	5644	2
5653	5647	5645	5646	2
5649	5646	5644	5645	2
5651	5648	5644	5643	2
5650	5646	5648	5647	2
5652	5647	5643	5648	2
1509	1508	1497	6776	2
1507	1506	1499	1510	2
1508	1496	1498	1497	2
1506	1500	1498	1499	2
1502	1497	1499	1498	2
1504	1501	1497	1496	2
1503	1499	1501	1500	2
1505	1496	1500	1501	2
1030	1029	1018	1006	2
1028	1027	1020	10409	2
1029	1017	1019	1018	2
1027	1019	1021	1020	2
1023	1018	1020	1019	2
1025	1018	1022	1017	2
1024	1020	1022	1021	2
1026	1017	1021	1022	2
659	658	647	635	2
657	656	649	2180	2
658	646	648	647	2
656	650	648	649	2
652	649	647	648	2
654	651	647	646	2
653	651	649	650	2
655	650	646	651	2
11482	11481	11470	8499	2
11480	11479	11472	4315	2
11481	11471	11469	11470	2
11479	11471	11473	11472	2
11475	11472	11470	11471	2
11477	11470	11474	11469	2
11476	11474	11472	11473	2
11478	11473	11469	11474	2
4550	4549	4538	7373	2
4548	4547	4540	4557	2
4549	4537	4539	4538	2
4547	4541	4539	4540	2
4543	4538	4540	4539	2
4545	4542	4538	4537	2
4544	4542	4540	4541	2
4546	4537	4541	4542	2
10716	10715	10708	10725	2
10718	10717	10706	4824	2
10715	10707	10709	10708	2
10717	10705	10707	10706	2
10711	10706	10708	10707	2
10712	10710	10708	10709	2
10713	10710	10706	10705	2
10714	10705	10709	10710	2
6152	6151	6140	10389	2
6150	6149	6142	6159	2
6151	6139	6141	6140	2
6149	6141	6143	6142	2
6145	6142	6140	6141	2
6147	6144	6140	6139	2
6146	6142	6144	6143	2
6148	6143	6139	6144	2
13664	13663	13656	10088	2
13666	13665	13654	10541	2
13663	13655	13657	13656	2
13665	13653	13655	13654	2
13659	13655	13654	13656	2
13660	13658	13656	13657	2
13661	13658	13654	13653	2
13662	13657	13653	13658	2
6835	6834	6827	6844	2
6837	6836	6825	4533	2
6834	6826	6828	6827	2
6836	6824	6826	6825	2
6830	6825	6827	6826	2
6831	6827	6829	6828	2
6832	6825	6829	6824	2
6833	6828	6824	6829	2
13582	13581	13570	10702	2
13580	13579	13572	9402	2
13581	13571	13569	13570	2
13579	13571	13573	13572	2
13575	13570	13572	13571	2
13577	13574	13570	13569	2
13576	13574	13572	13573	2
13578	13569	13573	13574	2
1769	1768	1761	1747	2
1771	1770	1759	8629	2
1768	1760	1762	1761	2
1770	1758	1760	1759	2
1764	1759	1761	1760	2
1765	1761	1763	1762	2
1766	1763	1759	1758	2
1767	1758	1762	1763	2
6764	6763	6752	10083	2
6762	6761	6754	6771	2
6763	6751	6753	6752	2
6761	6755	6753	6754	2
6757	6752	6754	6753	2
6759	6752	6756	6751	2
6758	6756	6754	6755	2
6760	6755	6751	6756	2
381	380	369	8273	2
379	378	371	357	2
380	368	370	369	2
378	370	372	371	2
374	371	369	370	2
376	373	369	368	2
375	371	373	372	2
377	368	372	373	2
3176	3175	3168	8376	2
3177	3179	3166	3178	2
3175	3167	3169	3168	2
3177	3165	3167	3166	2
3171	3166	3168	3167	2
3172	3168	3170	3169	2
3173	3166	3170	3165	2
3174	3165	3169	3170	2
2173	2172	2161	2149	2
2171	2170	2163	4281	2
2172	2160	2162	2161	2
2170	2162	2164	2163	2
2166	2163	2161	2162	2
2168	2161	2165	2160	2
2167	2165	2163	2164	2
2169	2164	2160	2165	2
11188	11187	11176	4287	2
11186	11185	11178	3850	2
11187	11175	11177	11176	2
11185	11177	11179	11178	2
11181	11178	11176	11177	2
11183	11176	11180	11175	2
11182	11180	11178	11179	2
11184	11179	11175	11180	2
2064	2063	2052	2065	2
2062	2061	2054	6135	2
2063	2051	2053	2052	2
2061	2055	2053	2054	2
2057	2052	2054	2053	2
2059	2052	2056	2051	2
2058	2054	2056	2055	2
2060	2055	2051	2056	2
12628	12627	12620	10731	2
12630	12629	12618	6341	2
12627	12619	12621	12620	2
12629	12617	12619	12618	2
12623	12620	12618	12619	2
12624	12622	12620	12621	2
12625	12622	12618	12617	2
12626	12617	12621	12622	2
6939	6938	6927	6946	2
6937	6936	6929	2000	2
6938	6926	6928	6927	2
6936	6930	6928	6929	2
6932	6927	6929	6928	2
6934	6927	6931	6926	2
6933	6929	6931	6930	2
6935	6930	6926	6931	2
11802	11801	11794	8966	2
11804	11803	11792	4867	2
11801	11793	11795	11794	2
11803	11793	11791	11792	2
11797	11794	11792	11793	2
11798	11796	11794	11795	2
11799	11796	11792	11791	2
11800	11795	11791	11796	2
1892	1891	1884	5342	2
1894	1893	1882	1870	2
1891	1884	1885	1883	2
1893	1883	1881	1882	2
1887	1884	1882	1883	2
1888	1884	1885	1886	2
1889	1882	1886	1881	2
1890	1881	1885	1886	2
12154	12153	12142	5581	2
12152	12151	12144	9431	2
12153	12143	12141	12142	2
12151	12143	12145	12144	2
12147	12144	12142	12143	2
12149	12142	12146	12141	2
12148	12144	12146	12145	2
12150	12141	12145	12146	2
3251	3250	3243	8746	2
3252	3254	3241	3253	2
3250	3244	3242	3243	2
3252	3242	3240	3241	2
3246	3241	3243	3242	2
3247	3243	3245	3244	2
3248	3241	3245	3240	2
3249	3240	3244	3245	2
1678	1677	1666	1654	2
1676	1675	1668	9827	2
1677	1667	1665	1666	2
1675	1667	1669	1668	2
1671	1668	1666	1667	2
1673	1670	1666	1665	2
1672	1670	1668	1669	2
1674	1665	1669	1670	2
9041	9040	9029	9048	2
9039	9038	9031	10907	2
9040	9028	9030	9029	2
9038	9030	9032	9031	2
9034	9029	9031	9030	2
9036	9033	9029	9028	2
9035	9031	9033	9032	2
9037	9032	9028	9033	2
12448	12447	12436	8484	2
12446	12445	12438	6020	2
12447	12437	12435	12436	2
12445	12437	12439	12438	2
12441	12436	12438	12437	2
12443	12440	12436	12435	2
12442	12438	12440	12439	2
12444	12439	12435	12440	2
3341	3340	3333	9069	2
3342	3343	3331	3344	2
3340	3332	3334	3333	2
3342	3332	3330	3331	2
3336	3331	3333	3332	2
3337	3333	3335	3334	2
3338	3331	3335	3330	2
3339	3330	3334	3335	2
2682	2683	2671	2684	2
2681	2680	2673	4388	2
2682	2670	2672	2671	2
2680	2674	2672	2673	2
2676	2671	2673	2672	2
2678	2671	2675	2670	2
2677	2673	2675	2674	2
2679	2674	2670	2675	2
2652	2653	2641	2654	2
2651	2650	2643	4068	2
2652	2642	2640	2641	2
2650	2642	2644	2643	2
2646	2641	2643	2642	2
2648	2645	2641	2640	2
2647	2643	2645	2644	2
2649	2640	2644	2645	2
13596	13595	13584	10117	2
13594	13593	13586	9651	2
13595	13585	13583	13584	2
13593	13587	13585	13586	2
13589	13586	13584	13585	2
13591	13588	13584	13583	2
13590	13588	13586	13587	2
13592	13587	13583	13588	2
7361	7360	7349	7368	2
7359	7358	7351	9053	2
7360	7350	7348	7349	2
7358	7350	7352	7351	2
7354	7349	7351	7350	2
7356	7349	7353	7348	2
7355	7351	7353	7352	2
7357	7348	7352	7353	2
13526	13525	13514	9287	2
13524	13523	13516	9010	2
13525	13515	13513	13514	2
13523	13517	13515	13516	2
13519	13514	13516	13515	2
13521	13514	13518	13513	2
13520	13516	13518	13517	2
13522	13513	13517	13518	2
11846	11845	11834	4925	2
11844	11843	11836	5246	2
11845	11835	11833	11834	2
11843	11835	11836	11837	2
11839	11834	11836	11835	2
11841	11834	11838	11833	2
11840	11838	11836	11837	2
11842	11837	11833	11838	2
12560	12559	12548	7564	2
12558	12557	12550	6237	2
12559	12549	12547	12548	2
12557	12551	12549	12550	2
12553	12548	12550	12549	2
12555	12548	12552	12547	2
12554	12550	12552	12551	2
12556	12551	12547	12552	2
7842	7841	7830	7849	2
7840	7839	7832	7951	2
7841	7831	7829	7830	2
7839	7831	7833	7832	2
7835	7830	7832	7831	2
7837	7834	7830	7829	2
7836	7834	7832	7833	2
7838	7833	7829	7834	2
8793	8792	8781	5669	2
8791	8790	8783	8800	2
8792	8780	8782	8781	2
8790	8782	8784	8783	2
8786	8781	8783	8782	2
8788	8781	8785	8780	2
8787	8783	8785	8784	2
8789	8784	8780	8785	2
11216	11215	11204	8322	2
11214	11213	11206	3866	2
11215	11203	11205	11204	2
11213	11205	11207	11206	2
11209	11206	11204	11205	2
11211	11204	11208	11203	2
11210	11208	11206	11207	2
11212	11203	11207	11208	2
4695	4694	4683	4702	2
4693	4692	4685	7534	2
4694	4682	4684	4683	2
4692	4686	4684	4685	2
4688	4685	4683	4684	2
4690	4683	4687	4682	2
4689	4685	4687	4686	2
4691	4682	4686	4687	2
2802	2803	2791	2804	2
2801	2800	2793	5303	2
2802	2792	2790	2791	2
2800	2794	2792	2793	2
2796	2791	2793	2792	2
2798	2795	2791	2790	2
2797	2795	2793	2794	2
2799	2794	2790	2795	2
1556	1555	1544	1532	2
1554	1553	1546	671	2
1555	1545	1543	1544	2
1553	1545	1547	1546	2
1549	1544	1546	1545	2
1551	1544	1548	1543	2
1550	1546	1548	1547	2
1552	1543	1547	1548	2
11370	11369	11358	9505	2
11368	11367	11360	4155	2
11369	11357	11359	11358	2
11367	11359	11361	11360	2
11363	11360	11358	11359	2
11365	11362	11358	11357	2
11364	11362	11360	11361	2
11366	11357	11361	11362	2
4463	4462	4451	4470	2
4461	4460	4453	6077	2
4462	4452	4450	4451	2
4460	4452	4454	4453	2
4456	4453	4451	4452	2
4458	4451	4455	4450	2
4457	4453	4455	4454	2
4459	4450	4454	4455	2
8148	8147	8136	8155	2
8146	8145	8138	5187	2
8147	8135	8137	8136	2
8145	8137	8139	8138	2
8141	8136	8138	8137	2
8143	8140	8136	8135	2
8142	8140	8138	8139	2
8144	8135	8139	8140	2
2967	2969	2956	2968	2
2966	2965	2958	6559	2
2967	2955	2957	2956	2
2965	2957	2959	2958	2
2961	2958	2956	2957	2
2963	2960	2956	2955	2
2962	2958	2960	2959	2
2964	2959	2955	2960	2
7900	7899	7888	7907	2
7898	7897	7890	4097	2
7899	7887	7889	7888	2
7897	7891	7889	7890	2
7893	7890	7888	7889	2
7895	7892	7888	7887	2
7894	7892	7890	7891	2
7896	7887	7891	7892	2
12028	12027	12016	5376	2
12026	12025	12018	9548	2
12027	12015	12017	12016	2
12025	12017	12019	12018	2
12021	12016	12018	12017	2
12023	12020	12016	12015	2
12022	12018	12020	12019	2
12024	12015	12019	12020	2
6866	6865	6854	6873	2
6864	6863	6856	6558	2
6865	6853	6855	6854	2
6863	6855	6857	6856	2
6859	6854	6856	6855	2
6861	6854	6858	6853	2
6860	6858	6856	6857	2
6862	6857	6853	6858	2
350	349	338	6101	2
348	347	340	326	2
349	337	339	338	2
347	341	339	340	2
343	338	340	339	2
345	338	342	337	2
344	342	340	341	2
346	341	337	342	2
11440	11439	11428	4242	2
11438	11437	11430	1457	2
11439	11427	11429	11428	2
11437	11431	11429	11430	2
11433	11428	11430	11429	2
11435	11432	11428	11427	2
11434	11432	11430	11431	2
11436	11431	11427	11432	2
7755	7754	7743	9973	2
7753	7752	7745	7762	2
7754	7742	7744	7743	2
7752	7746	7744	7745	2
7748	7743	7745	7744	2
7750	7743	7747	7742	2
7749	7747	7745	7746	2
7751	7742	7746	7747	2
4521	4520	4509	4528	2
4519	4518	4511	8937	2
4520	4508	4510	4509	2
4518	4510	4512	4511	2
4514	4511	4509	4510	2
4516	4509	4513	4508	2
4515	4511	4513	4512	2
4517	4512	4508	4513	2
13624	13623	13612	11038	2
13622	13621	13614	9885	2
13623	13611	13613	13612	2
13621	13615	13613	13614	2
13617	13612	13614	13613	2
13619	13616	13612	13611	2
13618	13616	13614	13615	2
13620	13615	13611	13616	2
6502	6501	6490	6509	2
6500	6499	6492	8059	2
6501	6491	6489	6490	2
6499	6493	6491	6492	2
6495	6492	6490	6491	2
6497	6490	6494	6489	2
6496	6494	6492	6493	2
6498	6493	6489	6494	2
6357	6356	6345	6364	2
6355	6354	6347	10234	2
6356	6346	6344	6345	2
6354	6348	6346	6347	2
6350	6345	6347	6346	2
6352	6345	6349	6344	2
6351	6349	6347	6348	2
6353	6348	6344	6349	2
3657	3658	3646	3659	2
3656	3655	3648	10964	2
3657	3647	3645	3646	2
3655	3648	3647	3649	2
3651	3647	3648	3646	2
3653	3650	3646	3645	2
3652	3648	3650	3649	2
3654	3649	3645	3650	2
12476	12475	12464	6078	2
12474	12473	12466	10979	2
12475	12463	12465	12464	2
12473	12465	12467	12466	2
12469	12466	12464	12465	2
12471	12464	12468	12463	2
12470	12466	12468	12467	2
12472	12467	12463	12468	2
2530	2529	2518	7383	2
2528	2527	2520	2506	2
2529	2519	2517	2518	2
2527	2519	2521	2520	2
2523	2518	2520	2519	2
2525	2518	2522	2517	2
2524	2520	2522	2521	2
2526	2521	2517	2522	2
3012	3013	3001	3014	2
3011	3010	3003	6917	2
3012	3000	3002	3001	2
3010	3004	3002	3003	2
3006	3003	3001	3002	2
3008	3001	3005	3000	2
3007	3003	3005	3004	2
3009	3000	3004	3005	2
6575	6574	6563	6582	2
6573	6572	6565	8097	2
6574	6562	6564	6563	2
6572	6566	6564	6565	2
6568	6565	6563	6564	2
6570	6567	6563	6562	2
6569	6565	6567	6566	2
6571	6562	6566	6567	2
999	998	987	9695	2
997	996	989	975	2
998	986	988	987	2
996	988	990	989	2
992	987	989	988	2
994	991	987	986	2
993	989	991	990	2
995	986	990	991	2
783	782	771	759	2
781	780	773	1295	2
782	770	772	771	2
780	772	774	773	2
776	773	771	772	2
778	775	771	770	2
777	775	773	774	2
779	770	774	775	2
1339	1338	1331	1317	2
1341	1340	1329	5575	2
1338	1332	1330	1331	2
1340	1330	1328	1329	2
1334	1331	1329	1330	2
1335	1331	1333	1332	2
1336	1333	1329	1328	2
1337	1328	1332	1333	2
3792	3793	3781	3794	2
3791	3790	3783	1476	2
3792	3780	3782	3781	2
3790	3784	3782	3783	2
3786	3781	3783	3782	2
3788	3785	3781	3780	2
3787	3783	3785	3784	2
3789	3784	3780	3785	2
12140	12139	12128	9636	2
12138	12137	12130	5580	2
12139	12129	12127	12128	2
12137	12129	12131	12130	2
12133	12130	12128	12129	2
12135	12128	12132	12127	2
12134	12130	12132	12131	2
12136	12127	12131	12132	2
13356	13355	13348	8601	2
13358	13357	13346	8367	2
13355	13349	13347	13348	2
13357	13345	13347	13346	2
13351	13346	13348	13347	2
13352	13348	13350	13349	2
13353	13350	13346	13345	2
13354	13345	13349	13350	2
12098	12097	12086	5537	2
12096	12095	12088	5726	2
12097	12085	12087	12086	2
12095	12089	12087	12088	2
12091	12088	12086	12087	2
12093	12090	12086	12085	2
12092	12088	12090	12089	2
12094	12089	12085	12090	2
9187	9186	9175	9194	2
9185	9184	9177	4897	2
9186	9176	9174	9175	2
9184	9178	9176	9177	2
9180	9175	9177	9176	2
9182	9175	9179	9174	2
9181	9177	9179	9178	2
9183	9178	9174	9179	2
1201	1200	1189	5809	2
1199	1198	1191	1177	2
1200	1188	1190	1189	2
1198	1192	1190	1191	2
1194	1189	1191	1190	2
1196	1193	1189	1188	2
1195	1193	1191	1192	2
1197	1192	1188	1193	2
12910	12909	12898	7185	2
12908	12907	12900	7403	2
12909	12897	12899	12898	2
12907	12901	12899	12900	2
12903	12900	12898	12899	2
12905	12898	12902	12897	2
12904	12900	12902	12901	2
12906	12897	12901	12902	2
3507	3509	3496	3508	2
3506	3505	3498	9652	2
3507	3495	3497	3496	2
3505	3497	3499	3498	2
3501	3498	3496	3497	2
3503	3496	3500	3495	2
3502	3500	3498	3499	2
3504	3495	3499	3500	2
3086	3085	3078	7573	2
3087	3089	3076	3088	2
3085	3079	3077	3078	2
3087	3077	3075	3076	2
3081	3078	3076	3077	2
3082	3080	3078	3079	2
3083	3080	3076	3075	2
3084	3079	3075	3080	2
12770	12769	12758	6850	2
12768	12767	12760	6719	2
12769	12759	12757	12758	2
12767	12759	12761	12760	2
12763	12758	12760	12759	2
12765	12758	12762	12757	2
12764	12760	12762	12761	2
12766	12761	12757	12762	2
3102	3104	3091	3103	2
3101	3100	3093	7646	2
3102	3092	3090	3091	2
3100	3092	3094	3093	2
3096	3093	3091	3092	2
3098	3091	3095	3090	2
3097	3093	3095	3094	2
3099	3094	3090	3095	2
8119	8118	8107	8126	2
8117	8116	8109	8103	2
8118	8108	8106	8107	2
8116	8108	8110	8109	2
8112	8107	8109	8108	2
8114	8111	8107	8106	2
8113	8111	8109	8110	2
8115	8110	8106	8111	2
12504	12503	12492	6164	2
12502	12501	12494	7068	2
12503	12493	12491	12492	2
12501	12495	12493	12494	2
12497	12494	12492	12493	2
12499	12496	12492	12491	2
12498	12494	12496	12495	2
12500	12491	12495	12496	2
4085	4084	4073	4092	2
4083	4082	4075	9025	2
4084	4074	4072	4073	2
4082	4074	4076	4075	2
4078	4073	4075	4074	2
4080	4073	4077	4072	2
4079	4077	4075	4076	2
4081	4076	4072	4077	2
11748	11747	11736	4794	2
11746	11745	11738	6849	2
11747	11735	11737	11736	2
11745	11737	11739	11738	2
11741	11736	11738	11737	2
11743	11736	11740	11735	2
11742	11740	11738	11739	2
11744	11739	11735	11740	2
9390	9389	9378	9397	2
9388	9387	9380	10205	2
9389	9379	9377	9378	2
9387	9379	9381	9380	2
9383	9380	9378	9379	2
9385	9382	9378	9377	2
9384	9380	9382	9381	2
9386	9377	9381	9382	2
12798	12797	12786	1690	2
12796	12795	12788	6777	2
12797	12787	12786	12785	2
12795	12787	12789	12788	2
12791	12787	12786	12788	2
12793	12790	12786	12785	2
12792	12790	12788	12789	2
12794	12785	12789	12790	2
13806	13805	13794	1969	2
13804	13803	13796	528	2
13805	13793	13795	13794	2
13803	13797	13795	13796	2
13799	13794	13796	13795	2
13801	13794	13798	13793	2
13800	13798	13796	13797	2
13802	13797	13793	13798	2
10514	10513	10502	10521	2
10512	10511	10504	6193	2
10513	10502	10501	10503	2
10511	10505	10503	10504	2
10507	10502	10504	10503	2
10509	10502	10501	10506	2
10508	10504	10506	10505	2
10510	10501	10505	10506	2
9609	9608	9597	9616	2
9607	9606	9599	4156	2
9608	9596	9598	9597	2
9606	9598	9600	9599	2
9602	9599	9597	9598	2
9604	9597	9601	9596	2
9603	9599	9601	9600	2
9605	9600	9596	9601	2
3806	3805	3798	2387	2
3807	3809	3796	3808	2
3805	3797	3799	3798	2
3807	3795	3797	3796	2
3801	3798	3796	3797	2
3802	3798	3800	3799	2
3803	3796	3800	3795	2
3804	3799	3795	3800	2
12490	12489	12478	6107	2
12488	12487	12480	7579	2
12489	12479	12477	12478	2
12487	12481	12479	12480	2
12483	12480	12478	12479	2
12485	12482	12478	12477	2
12484	12482	12480	12481	2
12486	12481	12477	12482	2
13428	13427	13416	8644	2
13426	13425	13418	9666	2
13427	13417	13415	13416	2
13425	13417	13419	13418	2
13421	13416	13418	13417	2
13423	13420	13416	13415	2
13422	13420	13418	13419	2
13424	13419	13415	13420	2
628	627	616	604	2
626	625	618	4373	2
627	615	617	616	2
625	617	619	618	2
621	616	618	617	2
623	620	616	615	2
622	618	619	620	2
624	619	615	620	2
13400	13399	13388	8411	2
13398	13397	13390	8483	2
13399	13387	13389	13388	2
13397	13389	13391	13390	2
13393	13390	13388	13389	2
13395	13388	13392	13387	2
13394	13392	13390	13391	2
13396	13391	13387	13392	2
12936	12935	12928	8015	2
12938	12937	12926	7344	2
12935	12929	12927	12928	2
12937	12925	12927	12926	2
12931	12926	12928	12927	2
12932	12930	12928	12929	2
12933	12930	12926	12925	2
12934	12925	12929	12930	2
2786	2785	2778	5245	2
2787	2789	2776	2788	2
2785	2777	2778	2779	2
2787	2777	2775	2776	2
2781	2778	2776	2777	2
2782	2778	2780	2779	2
2783	2776	2780	2775	2
2784	2775	2779	2780	2
1802	1801	1790	10394	2
1800	1799	1792	1778	2
1801	1789	1791	1790	2
1799	1791	1793	1792	2
1795	1792	1790	1791	2
1797	1790	1794	1789	2
1796	1792	1794	1793	2
1798	1793	1789	1794	2
11100	11099	11088	2559	2
11098	11097	11090	11107	2
11099	11089	11087	11088	2
11097	11089	11091	11090	2
11093	11088	11090	11089	2
11095	11088	11092	11087	2
11094	11090	11092	11091	2
11096	11087	11091	11092	2
890	889	878	9200	2
888	887	880	891	2
889	877	879	878	2
887	879	881	880	2
883	878	880	879	2
885	882	878	877	2
884	882	880	881	2
886	877	881	882	2
3567	3568	3556	3569	2
3566	3565	3558	10030	2
3567	3557	3555	3556	2
3565	3557	3559	3558	2
3561	3556	3558	3557	2
3563	3560	3556	3555	2
3562	3558	3560	3559	2
3564	3555	3559	3560	2
12980	12979	12968	7404	2
12978	12977	12970	8858	2
12979	12969	12967	12968	2
12977	12969	12971	12970	2
12973	12968	12970	12969	2
12975	12972	12968	12967	2
12974	12970	12972	12971	2
12976	12967	12971	12972	2
2468	2467	2456	8455	2
2466	2465	2458	2444	2
2467	2455	2457	2456	2
2465	2459	2457	2458	2
2461	2458	2456	2457	2
2463	2456	2460	2455	2
2462	2460	2458	2459	2
2464	2455	2459	2460	2
9419	9418	9407	9426	2
9417	9416	9409	10833	2
9418	9406	9408	9407	2
9416	9410	9408	9409	2
9412	9407	9409	9408	2
9414	9411	9407	9406	2
9413	9409	9411	9410	2
9415	9410	9406	9411	2
12348	12347	12340	5843	2
12350	12349	12338	8761	2
12347	12339	12341	12340	2
12349	12339	12337	12338	2
12343	12340	12338	12339	2
12344	12340	12341	12342	2
12345	12338	12342	12337	2
12346	12337	12341	12342	2
8236	8235	8224	8243	2
8234	8233	8226	9944	2
8235	8225	8223	8224	2
8233	8225	8227	8226	2
8229	8224	8226	8225	2
8231	8224	8228	8223	2
8230	8228	8226	8227	2
8232	8227	8223	8228	2
13568	13567	13556	9475	2
13566	13565	13558	9142	2
13567	13555	13557	13556	2
13565	13559	13557	13558	2
13561	13558	13556	13557	2
13563	13560	13556	13555	2
13562	13558	13560	13559	2
13564	13559	13555	13560	2
9683	9682	9671	5057	2
9681	9680	9673	9696	2
9682	9670	9672	9671	2
9680	9672	9674	9673	2
9676	9671	9673	9672	2
9678	9671	9675	9670	2
9677	9673	9675	9674	2
9679	9674	9670	9675	2
4056	4055	4044	4063	2
4054	4053	4046	7637	2
4055	4045	4043	4044	2
4053	4047	4045	4046	2
4049	4046	4044	4045	2
4051	4044	4048	4043	2
4050	4048	4046	4047	2
4052	4043	4047	4048	2
8586	8585	8578	2590	2
8588	8587	8576	8595	2
8585	8579	8577	8578	2
8587	8577	8575	8576	2
8581	8576	8578	8577	2
8582	8578	8580	8579	2
8583	8576	8580	8575	2
8584	8579	8575	8580	2
7668	7667	7656	7675	2
7666	7665	7658	7942	2
7667	7655	7657	7656	2
7665	7659	7657	7658	2
7661	7656	7658	7657	2
7663	7656	7660	7655	2
7662	7660	7658	7659	2
7664	7659	7655	7660	2
11790	11789	11778	8965	2
11788	11787	11780	4868	2
11789	11779	11777	11778	2
11787	11781	11779	11780	2
11783	11780	11778	11779	2
11785	11782	11778	11777	2
11784	11780	11782	11781	2
11786	11781	11777	11782	2
11818	11817	11806	9344	2
11816	11815	11808	4896	2
11817	11807	11805	11806	2
11815	11809	11807	11808	2
11811	11806	11808	11807	2
11813	11810	11806	11805	2
11812	11810	11808	11809	2
11814	11809	11805	11810	2
3911	3910	3899	3918	2
3909	3908	3901	9258	2
3910	3900	3898	3899	2
3908	3902	3900	3901	2
3904	3899	3901	3900	2
3906	3899	3903	3898	2
3905	3901	3903	3902	2
3907	3898	3902	3903	2
9492	9491	9480	7956	2
9490	9489	9482	9499	2
9491	9481	9479	9480	2
9489	9483	9481	9482	2
9485	9482	9480	9481	2
9487	9484	9480	9479	2
9486	9482	9484	9483	2
9488	9483	9479	9484	2
4637	4636	4625	4644	2
4635	4634	4627	8219	2
4636	4624	4626	4625	2
4634	4626	4628	4627	2
4630	4627	4625	4626	2
4632	4625	4629	4624	2
4631	4629	4627	4628	2
4633	4624	4628	4629	2
12672	12671	12660	10863	2
12670	12669	12662	6486	2
12671	12661	12659	12660	2
12669	12661	12663	12662	2
12665	12662	12660	12661	2
12667	12660	12664	12659	2
12666	12662	12664	12663	2
12668	12663	12659	12664	2
12924	12923	12912	7286	2
12922	12921	12914	10527	2
12923	12913	12911	12912	2
12921	12913	12915	12914	2
12917	12912	12914	12913	2
12919	12916	12912	12911	2
12918	12915	12914	12916	2
12920	12915	12911	12916	2
721	720	709	697	2
719	718	711	6136	2
720	708	709	710	2
718	712	710	711	2
714	711	709	710	2
716	713	709	708	2
715	713	711	712	2
717	712	708	713	2
12196	12195	12184	2154	2
12194	12193	12186	5624	2
12195	12185	12183	12184	2
12193	12185	12187	12186	2
12189	12186	12184	12185	2
12191	12188	12184	12183	2
12190	12186	12188	12187	2
12192	12183	12187	12188	2
13232	13231	13220	8190	2
13230	13229	13222	2325	2
13231	13221	13219	13220	2
13229	13223	13221	13222	2
13225	13220	13222	13221	2
13227	13220	13224	13219	2
13226	13224	13222	13223	2
13228	13223	13219	13224	2
7303	7302	7291	8493	2
7301	7300	7293	7310	2
7302	7292	7290	7291	2
7300	7294	7292	7293	2
7296	7291	7293	7292	2
7298	7295	7291	7290	2
7297	7293	7295	7294	2
7299	7294	7290	7295	2
13680	13679	13668	10147	2
13678	13677	13670	2418	2
13679	13669	13667	13668	2
13677	13671	13669	13670	2
13673	13670	13668	13669	2
13675	13672	13668	13667	2
13674	13670	13672	13671	2
13676	13667	13671	13672	2
1847	1846	1835	9199	2
1845	1844	1837	1848	2
1846	1834	1836	1835	2
1844	1836	1838	1837	2
1840	1837	1835	1836	2
1842	1839	1835	1834	2
1841	1837	1839	1838	2
1843	1834	1838	1839	2
12336	12335	12324	5814	2
12334	12333	12326	1084	2
12335	12323	12325	12324	2
12333	12327	12325	12326	2
12329	12324	12326	12325	2
12331	12328	12324	12323	2
12330	12328	12326	12327	2
12332	12323	12327	12328	2
1448	1447	1436	1449	2
1446	1445	1438	6990	2
1447	1437	1435	1436	2
1445	1439	1437	1438	2
1441	1438	1436	1437	2
1443	1440	1436	1435	2
1442	1440	1438	1439	2
1444	1435	1439	1440	2
5086	5085	5078	10483	2
5088	5087	5076	5095	2
5085	5077	5079	5078	2
5087	5077	5075	5076	2
5081	5078	5076	5077	2
5082	5080	5078	5079	2
5083	5076	5080	5075	2
5084	5079	5075	5080	2
96	95	84	74	2
94	93	86	7024	2
95	83	85	84	2
93	85	87	86	2
89	86	84	85	2
91	84	88	83	2
90	86	88	87	2
92	87	83	88	2
8822	8821	8810	8829	2
8820	8819	8812	5377	2
8821	8809	8811	8810	2
8819	8813	8811	8812	2
8815	8812	8810	8811	2
8817	8810	8814	8809	2
8816	8812	8814	8813	2
8818	8809	8813	8814	2
1230	1229	1222	1208	2
1231	1233	1220	1232	2
1229	1221	1223	1222	2
1231	1221	1219	1220	2
1225	1220	1222	1221	2
1226	1224	1222	1223	2
1227	1220	1224	1219	2
1228	1219	1223	1224	2
13820	13819	13808	1937	2
13818	13817	13810	733	2
13819	13807	13808	13809	2
13817	13811	13809	13810	2
13813	13810	13808	13809	2
13815	13808	13812	13807	2
13814	13810	13812	13811	2
13816	13811	13807	13812	2
1122	1121	1110	7039	2
1120	1119	1112	1098	2
1121	1111	1109	1110	2
1119	1111	1113	1112	2
1115	1110	1112	1111	2
1117	1110	1114	1109	2
1116	1114	1112	1113	2
1118	1113	1109	1114	2
11706	11705	11694	4737	2
11704	11703	11696	2356	2
11705	11693	11695	11694	2
11703	11695	11697	11696	2
11699	11694	11696	11695	2
11701	11694	11698	11693	2
11700	11698	11696	11697	2
11702	11693	11697	11698	2
9916	9915	9904	9923	2
9914	9913	9906	5946	2
9915	9903	9905	9904	2
9913	9907	9905	9906	2
9909	9906	9904	9905	2
9911	9904	9908	9903	2
9910	9908	9906	9907	2
9912	9907	9903	9908	2
11524	11523	11512	9929	2
11522	11521	11514	4389	2
11523	11511	11513	11512	2
11521	11513	11515	11514	2
11517	11512	11514	11513	2
11519	11516	11512	11511	2
11518	11516	11514	11515	2
11520	11511	11515	11516	2
412	411	400	11083	2
410	409	402	388	2
411	399	401	400	2
409	401	403	402	2
405	402	400	401	2
407	404	400	399	2
406	402	404	403	2
408	399	403	404	2
472	471	464	450	2
474	473	462	4418	2
471	465	463	464	2
473	461	463	462	2
467	464	462	463	2
468	466	464	465	2
469	462	466	461	2
470	465	461	466	2
1495	1494	1483	10404	2
1493	1492	1485	1471	2
1494	1484	1482	1483	2
1492	1484	1486	1485	2
1488	1485	1483	1484	2
1490	1487	1483	1482	2
1489	1485	1487	1486	2
1491	1486	1482	1487	2
845	844	833	821	2
843	842	835	578	2
844	832	834	833	2
842	834	836	835	2
838	835	833	834	2
840	833	837	832	2
839	837	835	836	2
841	832	836	837	2
2742	2744	2731	2743	2
2741	2740	2733	4998	2
2742	2732	2730	2731	2
2740	2734	2732	2733	2
2736	2733	2731	2732	2
2738	2731	2735	2730	2
2737	2733	2735	2734	2
2739	2730	2734	2735	2
128	127	116	11166	2
126	125	118	106	2
127	115	117	116	2
125	117	119	118	2
121	118	116	117	2
123	116	120	115	2
122	120	118	119	2
124	115	119	120	2
3969	3968	3957	7985	2
3967	3966	3959	3976	2
3968	3956	3958	3957	2
3966	3958	3960	3959	2
3962	3957	3959	3958	2
3964	3957	3961	3956	2
3963	3959	3961	3960	2
3965	3960	3956	3961	2
12406	12405	12394	2185	2
12404	12403	12396	5947	2
12405	12395	12393	12394	2
12403	12397	12395	12396	2
12399	12396	12394	12395	2
12401	12394	12398	12393	2
12400	12396	12398	12397	2
12402	12393	12397	12398	2
11930	11929	11918	5130	2
11928	11927	11920	1384	2
11929	11917	11919	11918	2
11927	11921	11919	11920	2
11923	11918	11920	11919	2
11925	11922	11918	11917	2
11924	11922	11920	11921	2
11926	11921	11917	11922	2
10894	10893	10882	10901	2
10892	10891	10884	9054	2
10893	10881	10883	10882	2
10891	10885	10883	10884	2
10887	10882	10884	10883	2
10889	10882	10886	10881	2
10888	10884	10886	10885	2
10890	10881	10885	10886	2
3940	3939	3928	6878	2
3938	3937	3930	3947	2
3939	3929	3927	3928	2
3937	3929	3931	3930	2
3933	3930	3928	3929	2
3935	3932	3928	3927	2
3934	3930	3932	3931	2
3936	3927	3931	3932	2
13134	13133	13122	7883	2
13132	13131	13124	1213	2
13133	13123	13121	13122	2
13131	13123	13125	13124	2
13127	13124	13122	13123	2
13129	13122	13126	13121	2
13128	13124	13126	13125	2
13130	13125	13121	13126	2
13162	13161	13150	7941	2
13160	13159	13152	9228	2
13161	13151	13149	13150	2
13159	13151	13153	13152	2
13155	13151	13152	13150	2
13157	13150	13154	13149	2
13156	13154	13152	13153	2
13158	13149	13153	13154	2
3372	3373	3361	3374	2
3371	3370	3363	9084	2
3372	3360	3362	3361	2
3370	3362	3364	3363	2
3366	3363	3361	3362	2
3368	3365	3361	3360	2
3367	3365	3363	3364	2
3369	3360	3364	3365	2
4782	4781	4770	9564	2
4780	4779	4772	4789	2
4781	4771	4769	4770	2
4779	4771	4773	4772	2
4775	4770	4772	4771	2
4777	4770	4774	4769	2
4776	4772	4774	4773	2
4778	4769	4773	4774	2
11664	11663	11652	4679	2
11662	11661	11654	6281	2
11663	11653	11651	11652	2
11661	11655	11653	11654	2
11657	11654	11652	11653	2
11659	11656	11652	11651	2
11658	11654	11656	11655	2
11660	11655	11651	11656	2
2283	2282	2271	9646	2
2281	2280	2273	2264	2
2282	2270	2272	2271	2
2280	2273	2274	2272	2
2276	2273	2271	2272	2
2278	2271	2275	2270	2
2277	2275	2273	2274	2
2279	2274	2270	2275	2
1988	1987	1976	1964	2
1986	1985	1978	4999	2
1987	1977	1975	1976	2
1985	1977	1979	1978	2
1981	1978	1976	1977	2
1983	1976	1980	1975	2
1982	1980	1978	1979	2
1984	1979	1975	1980	2
11678	11677	11666	8747	2
11676	11675	11668	4707	2
11677	11665	11667	11666	2
11675	11669	11667	11668	2
11671	11668	11666	11667	2
11673	11666	11670	11665	2
11672	11668	11670	11669	2
11674	11665	11669	11670	2
13218	13217	13206	8160	2
13216	13215	13208	9563	2
13217	13205	13207	13206	2
13215	13207	13209	13208	2
13211	13206	13208	13207	2
13213	13210	13206	13205	2
13212	13208	13210	13209	2
13214	13209	13205	13210	2
5233	5232	5221	10118	2
5231	5230	5223	5240	2
5232	5220	5222	5221	2
5230	5224	5222	5223	2
5226	5221	5223	5222	2
5228	5225	5221	5220	2
5227	5225	5223	5224	2
5229	5224	5220	5225	2
12742	12741	12730	8498	2
12740	12739	12732	6646	2
12741	12731	12729	12730	2
12739	12733	12731	12732	2
12735	12730	12732	12731	2
12737	12730	12734	12729	2
12736	12734	12732	12733	2
12738	12729	12733	12734	2
11538	11537	11526	7098	2
11536	11535	11528	4417	2
11537	11527	11525	11526	2
11535	11529	11527	11528	2
11531	11526	11528	11527	2
11533	11526	11530	11525	2
11532	11530	11528	11529	2
11534	11529	11525	11530	2
1570	1569	1558	1579	2
1568	1567	1560	8220	2
1569	1557	1559	1558	2
1567	1560	1561	1559	2
1563	1560	1558	1559	2
1565	1562	1558	1557	2
1564	1560	1562	1561	2
1566	1557	1561	1562	2
6415	6414	6403	6422	2
6413	6412	6405	9621	2
6414	6404	6402	6403	2
6412	6406	6404	6405	2
6408	6403	6405	6404	2
6410	6407	6403	6402	2
6409	6405	6407	6406	2
6411	6402	6406	6407	2
12826	12825	12814	9432	2
12824	12823	12816	6981	2
12825	12813	12815	12814	2
12823	12815	12817	12816	2
12819	12816	12814	12815	2
12821	12814	12818	12813	2
12820	12818	12816	12817	2
12822	12813	12817	12818	2
13190	13189	13178	8307	2
13188	13187	13180	8030	2
13189	13179	13177	13178	2
13187	13179	13181	13180	2
13183	13179	13178	13180	2
13185	13182	13178	13177	2
13184	13180	13182	13181	2
13186	13181	13177	13182	2
13384	13383	13376	8410	2
13386	13385	13374	9009	2
13383	13375	13377	13376	2
13385	13373	13375	13374	2
13379	13374	13376	13375	2
13380	13378	13376	13377	2
13381	13378	13374	13373	2
13382	13373	13377	13378	2
12728	12727	12716	7316	2
12726	12725	12718	6645	2
12727	12715	12717	12716	2
12725	12719	12717	12718	2
12721	12716	12718	12717	2
12723	12716	12720	12715	2
12722	12718	12720	12719	2
12724	12719	12715	12720	2
1245	1244	1237	10454	2
1247	1246	1235	1248	2
1244	1236	1238	1237	2
1246	1236	1234	1235	2
1240	1237	1235	1236	2
1241	1239	1237	1238	2
1242	1239	1235	1234	2
1243	1238	1234	1239	2
7274	7273	7262	7281	2
7272	7271	7264	9661	2
7273	7263	7261	7262	2
7271	7263	7265	7264	2
7267	7264	7262	7263	2
7269	7262	7266	7261	2
7268	7264	7266	7265	2
7270	7265	7261	7266	2
1617	1616	1605	1593	2
1615	1614	1607	1182	2
1616	1604	1606	1605	2
1614	1608	1606	1607	2
1610	1607	1605	1606	2
1612	1605	1609	1604	2
1611	1609	1607	1608	2
1613	1604	1608	1609	2
519	518	507	5911	2
517	516	509	520	2
518	506	508	507	2
516	510	508	509	2
512	507	509	508	2
514	511	507	506	2
513	509	511	510	2
515	506	510	511	2
13064	13063	13052	8907	2
13062	13061	13054	7636	2
13063	13051	13053	13052	2
13061	13055	13053	13054	2
13057	13052	13054	13053	2
13059	13051	13052	13056	2
13058	13054	13056	13055	2
13060	13055	13051	13056	2
8398	8397	8386	8405	2
8396	8395	8388	10176	2
8397	8385	8387	8386	2
8395	8389	8388	8387	2
8391	8386	8388	8387	2
8393	8390	8386	8385	2
8392	8388	8389	8390	2
8394	8389	8385	8390	2
4751	4750	4743	7126	2
4753	4752	4741	4760	2
4750	4742	4744	4743	2
4752	4742	4740	4741	2
4746	4743	4741	4742	2
4747	4743	4745	4744	2
4748	4741	4745	4740	2
4749	4740	4744	4745	2
3731	3730	3723	11156	2
3732	3733	3721	3734	2
3730	3722	3724	3723	2
3732	3722	3720	3721	2
3726	3721	3723	3722	2
3727	3725	3723	3724	2
3728	3725	3721	3720	2
3729	3724	3720	3725	2
12308	12307	12296	10141	2
12306	12305	12298	5800	2
12307	12295	12297	12296	2
12305	12297	12299	12298	2
12301	12296	12298	12297	2
12303	12296	12300	12295	2
12302	12300	12298	12299	2
12304	12295	12299	12300	2
5262	5261	5250	5269	2
5260	5259	5252	8258	2
5261	5249	5251	5250	2
5259	5251	5253	5252	2
5255	5250	5252	5251	2
5257	5254	5250	5249	2
5256	5252	5254	5253	2
5258	5253	5249	5254	2
7726	7725	7714	7733	2
7724	7723	7716	4446	2
7725	7715	7713	7714	2
7723	7717	7715	7716	2
7719	7714	7716	7715	2
7721	7718	7714	7713	2
7720	7718	7716	7717	2
7722	7713	7717	7718	2
9330	9329	9322	455	2
9332	9331	9320	9339	2
9329	9321	9323	9322	2
9331	9319	9321	9320	2
9325	9320	9322	9321	2
9326	9322	9324	9323	2
9327	9320	9324	9319	2
9328	9323	9319	9324	2
2111	2110	2099	2087	2
2109	2108	2101	9063	2
2110	2100	2098	2099	2
2108	2100	2102	2101	2
2104	2101	2099	2100	2
2106	2103	2099	2098	2
2105	2103	2101	2102	2
2107	2102	2098	2103	2
10850	10849	10838	10857	2
10848	10847	10840	7681	2
10849	10837	10839	10838	2
10847	10839	10841	10840	2
10843	10840	10838	10839	2
10845	10838	10842	10837	2
10844	10842	10840	10841	2
10846	10841	10837	10842	2
13148	13147	13136	2480	2
13146	13145	13138	7912	2
13147	13135	13137	13136	2
13145	13139	13137	13138	2
13141	13136	13138	13137	2
13143	13136	13140	13135	2
13142	13140	13138	13139	2
13144	13135	13139	13140	2
13636	13635	13628	9900	2
13638	13637	13626	980	2
13635	13627	13629	13628	2
13637	13625	13627	13626	2
13631	13626	13627	13628	2
13632	13630	13628	13629	2
13633	13626	13630	13625	2
13634	13625	13629	13630	2
11636	11635	11624	4649	2
11634	11633	11626	11010	2
11635	11623	11625	11624	2
11633	11627	11625	11626	2
11629	11624	11626	11625	2
11631	11624	11628	11623	2
11630	11628	11626	11627	2
11632	11627	11623	11628	2
2373	2372	2365	5027	2
2375	2374	2363	2351	2
2372	2364	2366	2365	2
2374	2364	2362	2363	2
2368	2365	2363	2364	2
2369	2367	2365	2366	2
2370	2367	2363	2362	2
2371	2362	2366	2367	2
3838	3837	3826	3845	2
3836	3835	3828	10755	2
3837	3827	3825	3826	2
3835	3827	3829	3828	2
3831	3828	3826	3827	2
3833	3830	3826	3825	2
3832	3828	3830	3829	2
3834	3829	3825	3830	2
13470	13469	13458	8834	2
13468	13467	13460	1275	2
13469	13459	13457	13458	2
13467	13461	13459	13460	2
13463	13458	13460	13459	2
13465	13458	13462	13457	2
13464	13462	13460	13461	2
13466	13457	13461	13462	2
11832	11831	11820	4926	2
11830	11829	11822	11054	2
11831	11819	11821	11820	2
11829	11821	11823	11822	2
11825	11820	11822	11821	2
11827	11824	11820	11819	2
11826	11822	11824	11823	2
11828	11819	11824	11823	2
11776	11775	11764	4853	2
11774	11773	11766	10277	2
11775	11763	11765	11764	2
11773	11765	11767	11766	2
11769	11764	11766	11765	2
11771	11768	11764	11763	2
11770	11768	11766	11767	2
11772	11763	11767	11768	2
968	967	956	944	2
966	965	958	5941	2
967	957	955	956	2
965	957	959	958	2
961	958	956	957	2
963	956	960	955	2
962	960	958	959	2
964	959	955	960	2
6735	6734	6723	6742	2
6733	6732	6725	1134	2
6734	6724	6722	6723	2
6732	6724	6726	6725	2
6728	6723	6725	6724	2
6730	6723	6727	6722	2
6729	6725	6727	6726	2
6731	6722	6726	6727	2
6662	6661	6650	5188	2
6660	6659	6652	6669	2
6661	6651	6649	6650	2
6659	6653	6651	6652	2
6655	6652	6650	6651	2
6657	6650	6654	6649	2
6656	6654	6652	6653	2
6658	6653	6649	6654	2
12434	12433	12422	1518	2
12432	12431	12424	6004	2
12433	12423	12421	12422	2
12431	12423	12425	12424	2
12427	12424	12422	12423	2
12429	12426	12422	12421	2
12428	12426	12424	12425	2
12430	12425	12421	12426	2
3282	3283	3271	3284	2
3281	3280	3273	8902	2
3282	3272	3270	3271	2
3280	3272	3274	3273	2
3276	3273	3271	3272	2
3278	3270	3275	3271	2
3277	3273	3275	3274	2
3279	3270	3274	3275	2
752	751	740	728	2
750	749	742	4993	2
751	739	741	740	2
749	741	743	742	2
745	742	740	741	2
747	740	744	739	2
746	744	742	743	2
748	739	743	744	2
8851	8850	8839	9943	2
8849	8848	8841	8864	2
8850	8838	8839	8840	2
8848	8842	8840	8841	2
8844	8841	8839	8840	2
8846	8838	8839	8843	2
8845	8841	8843	8842	2
8847	8838	8842	8843	2
12574	12573	12562	8088	2
12572	12571	12564	6267	2
12573	12561	12563	12562	2
12571	12563	12565	12564	2
12567	12562	12564	12563	2
12569	12562	12566	12561	2
12568	12566	12564	12565	2
12570	12565	12561	12566	2
7522	7521	7510	9724	2
7520	7519	7512	7529	2
7521	7509	7511	7510	2
7519	7511	7513	7512	2
7515	7510	7512	7511	2
7517	7510	7514	7509	2
7516	7512	7514	7513	2
7518	7513	7509	7514	2
7929	7928	7917	7936	2
7927	7926	7919	7680	2
7928	7916	7918	7917	2
7926	7920	7918	7919	2
7922	7917	7919	7918	2
7924	7917	7921	7916	2
7923	7921	7919	7920	2
7925	7916	7920	7921	2
12784	12783	12772	10379	2
12782	12781	12774	6748	2
12783	12771	12773	12772	2
12781	12773	12775	12774	2
12777	12774	12772	12773	2
12779	12776	12772	12771	2
12778	12774	12776	12775	2
12780	12771	12775	12776	2
160	159	148	138	2
158	157	150	6791	2
159	147	149	148	2
157	151	149	150	2
153	148	150	149	2
155	152	148	147	2
154	152	150	151	2
156	151	147	152	2
11566	11565	11554	4475	2
11564	11563	11556	393	2
11565	11555	11553	11554	2
11563	11555	11557	11556	2
11559	11554	11556	11555	2
11561	11554	11558	11553	2
11560	11558	11556	11557	2
11562	11553	11557	11558	2
1709	1708	1697	7884	2
1707	1706	1699	1685	2
1708	1697	1698	1696	2
1706	1700	1698	1699	2
1702	1698	1697	1699	2
1704	1701	1697	1696	2
1703	1699	1701	1700	2
1705	1700	1696	1701	2
2344	2343	2332	6786	2
2342	2341	2334	2320	2
2343	2331	2333	2332	2
2341	2335	2333	2334	2
2337	2334	2332	2333	2
2339	2336	2332	2331	2
2338	2334	2336	2335	2
2340	2331	2335	2336	2
12854	12853	12842	8776	2
12852	12851	12844	7040	2
12853	12843	12841	12842	2
12851	12845	12843	12844	2
12847	12842	12844	12843	2
12849	12842	12846	12841	2
12848	12845	12844	12846	2
12850	12845	12841	12846	2
3642	3643	3631	3644	2
3641	3640	3633	10805	2
3642	3630	3632	3631	2
3640	3632	3634	3633	2
3636	3631	3633	3632	2
3638	3631	3635	3630	2
3637	3635	3633	3634	2
3639	3634	3630	3635	2
5683	5682	5675	1571	2
5685	5684	5673	5698	2
5682	5676	5674	5675	2
5684	5674	5672	5673	2
5678	5675	5673	5674	2
5679	5677	5675	5676	2
5680	5677	5673	5672	2
5681	5676	5672	5677	2
13036	13035	13024	7602	2
13034	13033	13026	9622	2
13035	13023	13024	13025	2
13033	13025	13027	13026	2
13029	13024	13026	13025	2
13031	13023	13024	13028	2
13030	13028	13026	13027	2
13032	13023	13027	13028	2
5146	5145	5134	5153	2
5144	5143	5136	3923	2
5145	5135	5133	5134	2
5143	5137	5135	5136	2
5139	5134	5136	5135	2
5141	5134	5138	5133	2
5140	5136	5138	5137	2
5142	5137	5133	5138	2
3998	3997	3986	10761	2
3996	3995	3988	4005	2
3997	3987	3985	3986	2
3995	3989	3987	3988	2
3991	3988	3986	3987	2
3993	3986	3990	3985	2
3992	3988	3990	3989	2
3994	3985	3989	3990	2
12224	12223	12212	5697	2
12222	12221	12214	826	2
12223	12211	12213	12212	2
12221	12213	12215	12214	2
12217	12212	12214	12213	2
12219	12216	12212	12211	2
12218	12214	12216	12215	2
12220	12211	12215	12216	2
10105	10104	10093	10112	2
10103	10102	10095	7214	2
10104	10092	10094	10093	2
10102	10096	10094	10095	2
10098	10095	10093	10094	2
10100	10097	10093	10092	2
10099	10097	10095	10096	2
10101	10096	10092	10097	2
12658	12657	12646	6428	2
12656	12655	12648	949	2
12657	12645	12647	12646	2
12655	12649	12647	12648	2
12651	12648	12646	12647	2
12653	12646	12650	12645	2
12652	12648	12650	12649	2
12654	12645	12649	12650	2
9274	9273	9262	10175	2
9272	9271	9264	9286	2
9273	9263	9261	9262	2
9271	9263	9265	9264	2
9267	9264	9262	9263	2
9269	9262	9266	9261	2
9268	9266	9264	9265	2
9270	9261	9265	9266	2
8075	8074	8063	5348	2
8073	8072	8065	8082	2
8074	8062	8064	8063	2
8072	8066	8064	8065	2
8068	8063	8065	8064	2
8070	8063	8067	8062	2
8069	8065	8067	8066	2
8071	8062	8066	8067	2
10163	10162	10151	10170	2
10161	10160	10153	4852	2
10162	10152	10151	10150	2
10160	10152	10154	10153	2
10156	10153	10151	10152	2
10158	10151	10155	10150	2
10157	10155	10153	10154	2
10159	10154	10150	10155	2
9960	9959	9948	1856	2
9958	9957	9950	9967	2
9959	9947	9949	9948	2
9957	9949	9951	9950	2
9953	9950	9948	9949	2
9955	9948	9952	9947	2
9954	9952	9950	9951	2
9956	9947	9951	9952	2
11426	11425	11414	4243	2
11424	11423	11416	7652	2
11425	11413	11415	11414	2
11423	11415	11417	11416	2
11419	11414	11416	11415	2
11421	11414	11418	11413	2
11420	11418	11416	11417	2
11422	11417	11413	11418	2
13764	13763	13752	1752	2
13762	13761	13754	11112	2
13763	13753	13751	13752	2
13761	13753	13755	13754	2
13757	13754	13752	13753	2
13759	13756	13752	13751	2
13758	13756	13754	13755	2
13760	13751	13755	13756	2
2906	2905	2898	5844	2
2907	2909	2896	2908	2
2905	2897	2899	2898	2
2907	2897	2895	2896	2
2901	2898	2896	2897	2
2902	2899	2898	2900	2
2903	2896	2895	2900	2
2904	2895	2899	2900	2
256	255	244	234	2
254	253	246	8771	2
255	245	243	244	2
253	245	247	246	2
249	246	244	245	2
251	248	244	243	2
250	248	246	247	2
252	243	247	248	2
13078	13077	13066	10730	2
13076	13075	13068	7651	2
13077	13067	13065	13066	2
13075	13069	13067	13068	2
13071	13067	13068	13066	2
13073	13065	13070	13066	2
13072	13068	13070	13069	2
13074	13069	13065	13070	2
12896	12895	12884	7179	2
12894	12893	12886	8805	2
12895	12885	12883	12884	2
12893	12885	12887	12886	2
12889	12886	12884	12885	2
12891	12884	12888	12883	2
12890	12886	12888	12887	2
12892	12883	12887	12888	2
13344	13343	13332	702	2
13342	13341	13334	8308	2
13343	13333	13331	13332	2
13341	13335	13333	13334	2
13337	13332	13334	13333	2
13339	13332	13336	13331	2
13338	13334	13336	13335	2
13340	13331	13335	13336	2
2437	2436	2425	2413	2
2435	2434	2427	8199	2
2436	2426	2424	2425	2
2434	2426	2428	2427	2
2430	2425	2427	2426	2
2432	2429	2425	2424	2
2431	2429	2427	2428	2
2433	2428	2424	2429	2
11874	11873	11862	1256	2
11872	11871	11864	5028	2
11873	11863	11861	11862	2
11871	11865	11863	11864	2
11867	11864	11862	11863	2
11869	11866	11862	11861	2
11868	11866	11864	11865	2
11870	11861	11865	11866	2
2952	2954	2941	2953	2
2951	2950	2943	6553	2
2952	2942	2940	2941	2
2950	2942	2944	2943	2
2946	2941	2943	2942	2
2948	2941	2945	2940	2
2947	2943	2945	2944	2
2949	2944	2940	2945	2
13834	13833	13822	2202	2
13832	13831	13824	1906	2
13833	13823	13821	13822	2
13831	13823	13825	13824	2
13827	13824	13822	13823	2
13829	13826	13822	13821	2
13828	13826	13824	13825	2
13830	13825	13821	13826	2
8337	8336	8329	8346	2
8339	8338	8327	9690	2
8336	8330	8328	8329	2
8338	8326	8328	8327	2
8332	8329	8327	8328	2
8333	8331	8329	8330	2
8334	8331	8327	8326	2
8335	8326	8330	8331	2
1403	1402	1391	609	2
1401	1400	1393	1379	2
1402	1390	1392	1391	2
1400	1392	1394	1393	2
1396	1393	1391	1392	2
1398	1391	1395	1390	2
1397	1393	1395	1394	2
1399	1390	1394	1395	2
7449	7448	7437	7456	2
7447	7446	7439	6238	2
7448	7438	7436	7437	2
7446	7438	7440	7439	2
7442	7437	7439	7438	2
7444	7437	7441	7436	2
7443	7439	7441	7440	2
7445	7436	7440	7441	2
11620	11619	11612	7563	2
11622	11621	11610	4620	2
11619	11611	11613	11612	2
11621	11611	11609	11610	2
11615	11610	11612	11611	2
11616	11614	11612	11613	2
11617	11610	11614	11609	2
11618	11609	11613	11614	2
12250	12249	12242	6616	2
12252	12251	12240	5727	2
12249	12243	12241	12242	2
12251	12241	12239	12240	2
12245	12242	12240	12241	2
12246	12244	12242	12243	2
12247	12244	12240	12239	2
12248	12239	12243	12244	2
6254	6253	6242	6261	2
6252	6251	6244	4184	2
6253	6243	6241	6242	2
6251	6245	6244	6243	2
6247	6242	6244	6243	2
6249	6242	6246	6241	2
6248	6245	6244	6246	2
6250	6245	6241	6246	2
4143	4142	4131	4150	2
4141	4140	4133	7767	2
4142	4130	4132	4131	2
4140	4134	4132	4133	2
4136	4133	4131	4132	2
4138	4135	4131	4130	2
4137	4133	4135	4134	2
4139	4134	4130	4135	2
11720	11719	11708	8352	2
11718	11717	11710	4766	2
11719	11707	11709	11708	2
11717	11709	11711	11710	2
11713	11708	11710	11709	2
11715	11708	11712	11707	2
11714	11712	11710	11711	2
11716	11711	11707	11712	2
8002	8001	7990	8009	2
8000	7999	7992	3894	2
8001	7991	7989	7990	2
7999	7991	7993	7992	2
7995	7992	7990	7991	2
7997	7994	7990	7989	2
7996	7994	7992	7993	2
7998	7993	7989	7994	2
4724	4723	4712	6340	2
4722	4721	4714	4731	2
4723	4713	4711	4712	2
4721	4713	4715	4714	2
4717	4712	4714	4713	2
4719	4712	4716	4711	2
4718	4714	4716	4715	2
4720	4715	4711	4716	2
4666	4665	4654	857	2
4664	4663	4656	4678	2
4665	4655	4653	4654	2
4663	4655	4657	4656	2
4659	4656	4654	4655	2
4661	4654	4658	4653	2
4660	4658	4656	4657	2
4662	4653	4657	4658	2
10076	10075	10064	10089	2
10074	10073	10066	8777	2
10075	10063	10065	10064	2
10073	10067	10065	10066	2
10069	10066	10064	10065	2
10071	10068	10064	10063	2
10070	10066	10068	10067	2
10072	10067	10063	10068	2
5831	5830	5819	5838	2
5829	5828	5821	8756	2
5830	5818	5820	5819	2
5828	5820	5822	5821	2
5824	5821	5819	5820	2
5826	5823	5819	5818	2
5825	5821	5823	5822	2
5827	5818	5822	5823	2
2997	2998	2986	2999	2
2996	2995	2988	6713	2
2997	2987	2985	2986	2
2995	2987	2989	2988	2
2991	2986	2988	2987	2
2993	2990	2986	2985	2
2992	2988	2990	2989	2
2994	2989	2985	2990	2
6968	6967	6956	11151	2
6966	6965	6958	6980	2
6967	6957	6955	6956	2
6965	6959	6957	6958	2
6961	6958	6956	6957	2
6963	6956	6960	6955	2
6962	6960	6958	6959	2
6964	6959	6955	6960	2
1294	1293	1282	7490	2
1292	1291	1284	1270	2
1293	1283	1281	1282	2
1291	1283	1285	1284	2
1287	1284	1282	1283	2
1289	1282	1286	1281	2
1288	1286	1284	1285	2
1290	1285	1281	1286	2
2578	2577	2566	795	2
2576	2575	2568	2554	2
2577	2567	2565	2566	2
2575	2567	2569	2568	2
2571	2568	2566	2567	2
2573	2570	2566	2565	2
2572	2568	2570	2569	2
2574	2569	2565	2570	2
6384	6383	6376	7738	2
6386	6385	6374	6393	2
6383	6375	6377	6376	2
6385	6373	6375	6374	2
6379	6374	6376	6375	2
6380	6378	6376	6377	2
6381	6378	6374	6373	2
6382	6373	6377	6378	2
11230	11229	11218	7461	2
11228	11227	11220	3865	2
11229	11217	11219	11218	2
11227	11221	11219	11220	2
11223	11218	11220	11219	2
11225	11222	11218	11217	2
11224	11220	11222	11221	2
11226	11221	11217	11222	2
10352	10351	10340	4316	2
10350	10349	10342	10359	2
10351	10341	10339	10340	2
10349	10343	10341	10342	2
10345	10340	10342	10341	2
10347	10340	10344	10339	2
10346	10344	10342	10343	2
10348	10339	10343	10344	2
3821	3820	3813	764	2
3822	3823	3811	3824	2
3820	3812	3814	3813	2
3822	3812	3810	3811	2
3816	3811	3813	3812	2
3817	3813	3815	3814	2
3818	3815	3811	3810	2
3819	3810	3814	3815	2
11272	11271	11260	6792	2
11270	11269	11262	4011	2
11271	11261	11259	11260	2
11269	11261	11263	11262	2
11265	11262	11260	11261	2
11267	11260	11264	11259	2
11266	11264	11262	11263	2
11268	11263	11259	11264	2
10573	10572	10561	11048	2
10571	10570	10563	10580	2
10572	10560	10562	10561	2
10570	10564	10562	10563	2
10566	10561	10563	10562	2
10568	10561	10565	10560	2
10567	10565	10563	10564	2
10569	10560	10564	10565	2
7114	7113	7102	7121	2
7112	7111	7104	5916	2
7113	7103	7101	7102	2
7111	7105	7103	7104	2
7107	7104	7102	7103	2
7109	7102	7106	7101	2
7108	7104	7106	7105	2
7110	7105	7101	7106	2
1833	1832	1821	1814	2
1831	1830	1823	300	2
1832	1820	1822	1821	2
1830	1822	1824	1823	2
1826	1821	1823	1822	2
1828	1821	1825	1820	2
1827	1825	1823	1824	2
1829	1820	1824	1825	2
12840	12839	12828	6995	2
12838	12837	12830	10701	2
12839	12827	12829	12828	2
12837	12831	12829	12830	2
12833	12828	12830	12829	2
12835	12828	12832	12827	2
12834	12832	12830	12831	2
12836	12831	12827	12832	2
3387	3389	3376	3388	2
3386	3385	3378	9112	2
3387	3377	3375	3376	2
3385	3377	3379	3378	2
3381	3378	3376	3377	2
3383	3376	3380	3375	2
3382	3380	3378	3379	2
3384	3379	3375	3380	2
13540	13539	13528	9024	2
13538	13537	13530	10834	2
13539	13527	13529	13528	2
13537	13531	13529	13530	2
13533	13528	13530	13529	2
13535	13532	13528	13527	2
13534	13532	13530	13531	2
13536	13527	13531	13532	2
11944	11943	11932	2031	2
11942	11941	11934	5159	2
11943	11931	11933	11932	2
11941	11935	11933	11934	2
11937	11934	11932	11933	2
11939	11932	11936	11931	2
11938	11936	11934	11935	2
11940	11931	11935	11936	2
11258	11257	11246	3924	2
11256	11255	11248	2092	2
11257	11245	11247	11246	2
11255	11249	11247	11248	2
11251	11248	11246	11247	2
11253	11246	11250	11245	2
11252	11250	11248	11249	2
11254	11245	11249	11250	2
3612	3613	3601	3614	2
3611	3610	3603	10740	2
3612	3602	3600	3601	2
3610	3604	3602	3603	2
3606	3601	3603	3602	2
3608	3601	3605	3600	2
3607	3603	3605	3604	2
3609	3600	3605	3604	2
317	316	309	7710	2
319	318	307	295	2
316	310	308	309	2
318	308	306	307	2
312	309	307	308	2
313	309	311	310	2
314	307	311	306	2
315	306	310	311	2
2609	2608	2597	2585	2
2607	2606	2599	424	2
2608	2598	2596	2597	2
2606	2598	2600	2599	2
2602	2599	2597	2598	2
2604	2601	2597	2596	2
2603	2601	2599	2600	2
2605	2600	2596	2601	2
5553	5552	5541	5560	2
5551	5550	5543	10872	2
5552	5542	5540	5541	2
5550	5544	5542	5543	2
5546	5541	5543	5542	2
5548	5541	5545	5540	2
5547	5545	5543	5544	2
5549	5544	5540	5545	2
4332	4331	4320	4339	2
4330	4329	4322	8639	2
4331	4321	4319	4320	2
4329	4323	4321	4322	2
4325	4322	4320	4321	2
4327	4324	4320	4319	2
4326	4324	4322	4323	2
4328	4319	4323	4324	2
13848	13847	13836	1303	2
13846	13845	13838	1659	2
13847	13835	13837	13836	2
13845	13839	13837	13838	2
13841	13838	13836	13837	2
13843	13836	13840	13835	2
13842	13840	13838	13839	2
13844	13839	13835	13840	2
3297	3298	3286	3299	2
3296	3295	3288	8908	2
3297	3285	3287	3286	2
3295	3289	3287	3288	2
3291	3286	3288	3287	2
3293	3286	3290	3285	2
3292	3288	3290	3289	2
3294	3289	3285	3290	2
12546	12545	12534	6223	2
12544	12543	12536	6617	2
12545	12535	12533	12534	2
12543	12537	12535	12536	2
12539	12534	12536	12535	2
12541	12538	12534	12533	2
12540	12536	12538	12537	2
12542	12533	12537	12538	2
12322	12321	12310	7025	2
12320	12319	12312	5815	2
12321	12309	12311	12310	2
12319	12313	12311	12312	2
12315	12312	12310	12311	2
12317	12310	12314	12309	2
12316	12314	12312	12313	2
12318	12309	12313	12314	2
11398	11397	11386	4213	2
11396	11395	11388	10410	2
11397	11387	11385	11386	2
11395	11387	11389	11388	2
11391	11388	11386	11387	2
11393	11390	11386	11385	2
11392	11388	11390	11389	2
11394	11385	11389	11390	2
5291	5290	5279	5298	2
5289	5288	5281	7127	2
5290	5278	5280	5279	2
5288	5280	5282	5281	2
5284	5279	5281	5280	2
5286	5283	5279	5278	2
5285	5283	5281	5282	2
5287	5278	5282	5283	2
1434	1433	1422	1410	2
1432	1431	1424	8741	2
1433	1423	1421	1422	2
1431	1425	1423	1424	2
1427	1424	1422	1423	2
1429	1426	1422	1421	2
1428	1426	1424	1425	2
1430	1425	1421	1426	2
12644	12643	12632	6821	2
12642	12641	12634	6399	2
12643	12631	12633	12632	2
12641	12635	12633	12634	2
12637	12632	12634	12633	2
12639	12636	12632	12631	2
12638	12636	12634	12635	2
12640	12631	12635	12636	2
11888	11887	11876	8703	2
11886	11885	11878	5072	2
11887	11877	11875	11876	2
11885	11879	11877	11878	2
11881	11876	11878	11877	2
11883	11880	11876	11875	2
11882	11878	11880	11879	2
11884	11875	11879	11880	2
4913	4912	4901	362	2
4911	4910	4903	4920	2
4912	4902	4900	4901	2
4910	4904	4902	4903	2
4906	4903	4901	4902	2
4908	4901	4905	4900	2
4907	4903	4905	4904	2
4909	4900	4904	4905	2
5961	5960	5953	8014	2
5963	5962	5951	5970	2
5960	5954	5952	5953	2
5962	5950	5952	5951	2
5956	5953	5951	5952	2
5957	5955	5953	5954	2
5958	5951	5955	5950	2
5959	5950	5954	5955	2
11384	11383	11372	4954	2
11382	11381	11374	4185	2
11383	11371	11373	11372	2
11381	11373	11374	11375	2
11377	11374	11372	11373	2
11379	11372	11376	11371	2
11378	11374	11376	11375	2
11380	11371	11375	11376	2
12238	12237	12226	1721	2
12236	12235	12228	5692	2
12237	12225	12227	12226	2
12235	12227	12229	12228	2
12231	12228	12226	12227	2
12233	12226	12230	12225	2
12232	12230	12228	12229	2
12234	12225	12229	12230	2
10660	10659	10648	10667	2
10658	10657	10650	10878	2
10659	10647	10649	10648	2
10657	10649	10651	10650	2
10653	10650	10648	10649	2
10655	10648	10652	10647	2
10654	10652	10650	10651	2
10656	10651	10647	10652	2
3582	3584	3571	3583	2
3581	3580	3573	10497	2
3582	3572	3570	3571	2
3580	3574	3572	3573	2
3576	3571	3573	3572	2
3578	3571	3575	3570	2
3577	3573	3575	3574	2
3579	3570	3574	3575	2
505	504	493	9938	2
503	502	495	481	2
504	494	492	493	2
502	494	496	495	2
498	495	493	494	2
500	497	493	492	2
499	497	495	496	2
501	496	492	497	2
7784	7783	7772	5071	2
7782	7781	7774	7791	2
7783	7773	7771	7772	2
7781	7774	7775	7773	2
7777	7772	7774	7773	2
7779	7772	7776	7771	2
7778	7776	7774	7775	2
7780	7771	7775	7776	2
11916	11915	11904	5129	2
11914	11913	11906	10031	2
11915	11905	11903	11904	2
11913	11907	11905	11906	2
11909	11904	11906	11905	2
11911	11904	11908	11903	2
11910	11908	11906	11907	2
11912	11907	11903	11908	2
224	223	212	202	2
222	221	214	8361	2
223	211	213	212	2
221	215	213	214	2
217	212	214	213	2
219	216	212	211	2
218	214	216	215	2
220	211	215	216	2
10602	10601	10590	10609	2
10600	10599	10592	7913	2
10601	10589	10591	10590	2
10599	10593	10591	10592	2
10595	10592	10590	10591	2
10597	10594	10590	10589	2
10596	10594	10592	10593	2
10598	10589	10593	10594	2
32	31	20	4010	2
30	29	22	10	2
31	21	19	20	2
29	21	23	22	2
25	22	20	21	2
27	24	20	19	2
26	22	24	23	2
28	19	23	24	2
2756	2755	2748	5066	2
2757	2759	2746	2758	2
2755	2747	2749	2748	2
2757	2747	2745	2746	2
2751	2746	2748	2747	2
2752	2748	2750	2749	2
2753	2746	2750	2745	2
2754	2749	2745	2750	2
2219	2218	2211	2197	2
2221	2220	2209	8420	2
2218	2212	2210	2211	2
2220	2210	2208	2209	2
2214	2209	2211	2210	2
2215	2211	2213	2212	2
2216	2209	2213	2208	2
2217	2208	2212	2213	2
13736	13735	13724	10877	2
13734	13733	13726	10673	2
13735	13725	13723	13724	2
13733	13727	13725	13726	2
13729	13724	13726	13725	2
13731	13724	13728	13723	2
13730	13726	13728	13727	2
13732	13723	13727	13728	2
7245	7244	7233	6879	2
7243	7242	7235	7252	2
7244	7232	7234	7233	2
7242	7236	7234	7235	2
7238	7233	7235	7234	2
7240	7237	7233	7232	2
7239	7235	7237	7236	2
7241	7232	7236	7237	2
4114	4113	4102	4121	2
4112	4111	4104	5590	2
4113	4103	4101	4102	2
4111	4105	4103	4104	2
4107	4102	4104	4103	2
4109	4106	4102	4101	2
4108	4104	4106	4105	2
4110	4101	4105	4106	2
6123	6122	6111	6130	2
6121	6120	6113	6908	2
6122	6110	6112	6111	2
6120	6112	6114	6113	2
6116	6111	6113	6112	2
6118	6111	6115	6110	2
6117	6113	6115	6114	2
6119	6110	6114	6115	2
4301	4300	4293	1042	2
4303	4302	4291	4310	2
4300	4294	4292	4293	2
4302	4292	4290	4291	2
4296	4291	4293	4292	2
4297	4295	4293	4294	2
4298	4291	4295	4290	2
4299	4290	4294	4295	2
13300	13299	13292	9229	2
13302	13301	13290	8249	2
13299	13291	13293	13292	2
13301	13289	13291	13290	2
13295	13292	13290	13291	2
13296	13294	13292	13293	2
13297	13290	13294	13289	2
13298	13289	13293	13294	2
7085	7084	7073	11172	2
7083	7082	7075	7092	2
7084	7072	7074	7073	2
7082	7076	7074	7075	2
7078	7075	7073	7074	2
7080	7077	7073	7072	2
7079	7075	7077	7076	2
7081	7072	7076	7077	2
4172	4171	4160	5434	2
4170	4169	4162	4179	2
4171	4161	4159	4160	2
4169	4161	4163	4162	2
4165	4160	4162	4161	2
4167	4160	4164	4159	2
4166	4164	4162	4163	2
4168	4159	4163	4164	2
3596	3595	3588	10643	2
3597	3599	3586	3598	2
3595	3587	3589	3588	2
3597	3585	3587	3586	2
3591	3586	3588	3587	2
3592	3590	3588	3589	2
3593	3586	3590	3585	2
3594	3585	3589	3590	2
3356	3355	3348	9078	2
3357	3359	3346	3358	2
3355	3349	3347	3348	2
3357	3347	3345	3346	2
3351	3346	3348	3347	2
3352	3348	3350	3349	2
3353	3346	3350	3345	2
3354	3345	3349	3350	2
7593	7592	7585	7607	2
7595	7594	7583	5668	2
7592	7586	7584	7585	2
7594	7584	7582	7583	2
7588	7585	7583	7584	2
7589	7587	7585	7586	2
7590	7587	7583	7582	2
7591	7586	7582	7587	2
10470	10469	10458	10482	2
10468	10467	10460	6674	2
10469	10457	10459	10458	2
10467	10459	10461	10460	2
10463	10458	10460	10459	2
10465	10462	10458	10457	2
10464	10460	10462	10461	2
10466	10457	10462	10461	2
5393	5392	5381	5400	2
5391	5390	5383	10492	2
5392	5382	5380	5381	2
5390	5382	5384	5383	2
5386	5383	5381	5382	2
5388	5385	5381	5380	2
5387	5383	5385	5384	2
5389	5380	5384	5385	2
12168	12167	12156	9637	2
12166	12165	12158	5596	2
12167	12157	12155	12156	2
12165	12159	12157	12158	2
12161	12158	12156	12157	2
12163	12156	12160	12155	2
12162	12160	12158	12159	2
12164	12155	12159	12160	2
3839	3840	3842	3845	2
3847	3839	3841	3840	2
3841	3844	3840	3851	2
3849	3843	3841	3844	2
3843	3844	3842	3850	2
3848	3839	3843	3842	2
3850	3852	3843	11185	2
3845	3846	3839	3837	2
3851	3853	3841	11199	2
291	290	294	301	2
299	291	293	294	2
293	292	294	300	2
298	293	289	292	2
289	290	292	295	2
297	291	289	290	2
295	296	289	318	2
301	303	291	304	2
300	302	293	1830	2
320	321	323	326	2
328	322	320	321	2
322	325	321	332	2
330	322	324	325	2
324	325	323	331	2
329	324	320	323	2
331	333	324	11647	2
326	327	320	347	2
332	334	322	335	2
3854	3857	3855	3860	2
3863	3858	3854	3857	2
3858	3857	3859	3865	2
3864	3856	3858	3859	2
3856	3859	3855	3866	2
3862	3856	3854	3855	2
3866	3868	3856	11213	2
3860	3861	3854	2620	2
3865	3867	3858	11227	2
351	352	354	357	2
360	355	351	354	2
355	354	356	362	2
361	353	355	356	2
353	352	356	363	2
359	351	353	352	2
363	365	353	366	2
357	358	351	378	2
362	364	355	4912	2
382	383	385	388	2
391	382	386	385	2
386	385	387	393	2
392	386	384	387	2
384	383	387	394	2
390	382	384	383	2
394	396	384	397	2
388	389	382	409	2
393	395	386	11563	2
3883	3886	3884	3889	2
3892	3883	3887	3886	2
3887	3888	3886	3894	2
3893	3885	3887	3888	2
3885	3888	3884	3895	2
3891	3885	3883	3884	2
3895	3897	3885	11243	2
3889	3890	3883	3879	2
3894	3896	3887	7999	2
3912	3915	3913	3918	2
3921	3912	3916	3915	2
3916	3915	3917	3923	2
3922	3916	3914	3917	2
3917	3914	3913	3924	2
3920	3912	3914	3913	2
3924	3926	3914	11257	2
3918	3919	3912	3910	2
3923	3925	3916	5143	2
415	418	414	425	2
421	413	415	414	2
413	414	416	419	2
422	417	413	416	2
418	417	416	424	2
423	415	417	418	2
424	426	417	2606	2
425	427	415	428	2
419	420	413	440	2
3941	3944	3942	3947	2
3950	3945	3941	3944	2
3945	3946	3944	3952	2
3951	3943	3945	3946	2
3943	3946	3942	3953	2
3949	3941	3943	3942	2
3953	3955	3943	2635	2
3947	3948	3941	3937	2
3952	3954	3945	10688	2
3970	3971	3973	3976	2
3978	3972	3970	3971	2
3972	3975	3971	3982	2
3980	3972	3974	3975	2
3974	3975	3973	3981	2
3979	3974	3970	3973	2
3981	3983	3974	8718	2
3976	3977	3970	3966	2
3982	3984	3972	10015	2
3999	4000	4002	4005	2
4008	4003	3999	4002	2
4003	4004	4002	4010	2
4009	4001	4003	4004	2
4001	4000	4004	4011	2
4007	4001	3999	4000	2
4011	4013	4001	11269	2
4005	4006	3999	3995	2
4010	4012	4003	31	2
446	449	445	456	2
452	444	446	445	2
444	445	447	450	2
453	444	448	447	2
448	449	447	455	2
454	446	448	449	2
455	457	448	9329	2
456	458	446	459	2
450	451	444	471	2
4028	4029	4031	4034	2
4037	4032	4028	4031	2
4032	4031	4033	4039	2
4038	4030	4032	4033	2
4030	4033	4029	4040	2
4036	4030	4028	4029	2
4040	4042	4030	11285	2
4034	4035	4028	4024	2
4039	4041	4032	11299	2
4057	4058	4060	4063	2
4065	4057	4059	4058	2
4059	4062	4058	4069	2
4067	4059	4061	4062	2
4061	4062	4060	4068	2
4066	4061	4057	4060	2
4068	4070	4061	2650	2
4063	4064	4057	4055	2
4069	4071	4059	11313	2
4086	4087	4089	4092	2
4094	4086	4088	4087	2
4088	4087	4091	4098	2
4096	4088	4090	4091	2
4090	4091	4089	4097	2
4095	4086	4090	4089	2
4097	4099	4090	7897	2
4092	4093	4086	4084	2
4098	4100	4088	11325	2
4	5	9	2	2
18	8	4	9	2
8	9	7	10	2
17	6	8	7	2
6	5	7	12	2
16	6	4	5	2
12	14	6	13	2
2	3	4	1	2
10	11	8	29	2
4115	4116	4118	4121	2
4123	4117	4115	4116	2
4117	4116	4120	4127	2
4125	4117	4119	4120	2
4119	4120	4118	4126	2
4124	4115	4119	4118	2
4126	4128	4119	11341	2
4121	4122	4115	4113	2
4127	4129	4117	11355	2
475	476	478	481	2
483	475	477	476	2
477	480	476	487	2
485	479	477	480	2
479	478	480	486	2
484	479	475	478	2
486	488	479	13369	2
481	482	475	502	2
487	489	477	490	2
4144	4145	4147	4150	2
4152	4146	4144	4145	2
4146	4145	4149	4156	2
4154	4146	4148	4149	2
4148	4149	4147	4155	2
4153	4148	4144	4147	2
4155	4157	4148	11367	2
4150	4151	4144	4142	2
4156	4158	4146	9606	2
522	523	527	520	2
535	526	522	527	2
526	527	525	528	2
534	524	526	525	2
524	523	525	530	2
533	524	522	523	2
530	532	524	531	2
520	521	522	516	2
528	529	526	13803	2
4173	4174	4176	4179	2
4181	4173	4175	4174	2
4175	4178	4174	4185	2
4183	4177	4178	4175	2
4176	4177	4178	4184	2
4182	4177	4173	4176	2
4184	4186	4177	6251	2
4179	4180	4173	4169	2
4185	4187	4175	11381	2
4202	4203	4205	4208	2
4210	4204	4202	4203	2
4204	4207	4203	4214	2
4212	4206	4204	4207	2
4206	4207	4205	4213	2
4211	4202	4206	4205	2
4213	4215	4206	11397	2
4208	4209	4202	4200	2
4214	4216	4204	11409	2
4231	4234	4232	4237	2
4240	4235	4231	4234	2
4235	4236	4234	4242	2
4241	4235	4233	4236	2
4233	4232	4236	4243	2
4239	4231	4233	4232	2
4243	4245	4233	11425	2
4237	4238	4231	4227	2
4242	4244	4235	11439	2
4260	4261	4263	4266	2
4268	4260	4262	4261	2
4262	4261	4265	4272	2
4270	4264	4262	4265	2
4264	4263	4265	4271	2
4269	4264	4260	4263	2
4271	4273	4264	11451	2
4266	4267	4260	4258	2
4272	4274	4262	2665	2
536	537	539	542	2
544	538	536	537	2
538	541	537	548	2
546	540	538	541	2
540	539	541	547	2
545	536	540	539	2
547	549	540	11493	2
542	543	536	563	2
548	550	538	551	2
569	572	568	579	2
575	567	569	568	2
567	568	570	573	2
576	571	567	570	2
571	572	570	578	2
577	571	569	572	2
578	580	571	842	2
579	581	569	582	2
573	574	567	594	2
4275	4276	4278	4281	2
4284	4275	4279	4278	2
4279	4278	4280	4286	2
4285	4277	4279	4280	2
4277	4276	4280	4287	2
4283	4277	4275	4276	2
4287	4289	4277	11187	2
4281	4282	4275	2170	2
4286	4288	4279	11465	2
4306	4309	4305	4316	2
4314	4306	4308	4309	2
4308	4307	4309	4315	2
4313	4308	4304	4307	2
4304	4305	4307	4310	2
4312	4306	4304	4305	2
4310	4311	4304	4302	2
4316	4318	4306	10351	2
4315	4317	4308	11479	2
598	601	599	604	2
606	598	600	599	2
600	599	603	610	2
608	602	600	603	2
602	603	601	609	2
607	602	598	601	2
609	611	602	1402	2
604	605	598	627	2
610	612	600	613	2
4333	4336	4334	4339	2
4342	4333	4337	4336	2
4337	4336	4338	4344	2
4343	4337	4335	4338	2
4335	4338	4334	4345	2
4341	4335	4333	4334	2
4345	4347	4335	11128	2
4339	4340	4333	4331	2
4344	4346	4337	11495	2
629	630	632	635	2
637	631	629	630	2
631	634	630	641	2
639	633	631	634	2
633	632	634	640	2
638	633	629	632	2
640	642	633	13791	2
635	636	629	658	2
641	643	631	644	2
4362	4363	4365	4368	2
4371	4362	4366	4365	2
4366	4365	4367	4373	2
4372	4364	4366	4367	2
4364	4367	4363	4374	2
4370	4362	4364	4363	2
4374	4376	4364	11509	2
4368	4369	4362	4358	2
4373	4375	4366	625	2
4377	4378	4380	4383	2
4385	4379	4377	4378	2
4379	4378	4382	4389	2
4387	4381	4379	4382	2
4381	4382	4380	4388	2
4386	4381	4377	4380	2
4388	4390	4381	2680	2
4383	4384	4377	2695	2
4389	4391	4379	11521	2
4406	4407	4409	4412	2
4414	4408	4406	4407	2
4408	4407	4411	4418	2
4416	4408	4410	4411	2
4410	4409	4411	4417	2
4415	4410	4406	4409	2
4417	4419	4410	11535	2
4412	4413	4406	4402	2
4418	4420	4408	473	2
4435	4438	4436	4441	2
4443	4437	4435	4436	2
4437	4440	4436	4447	2
4445	4437	4439	4440	2
4439	4440	4438	4446	2
4444	4435	4439	4438	2
4446	4448	4439	7723	2
4441	4442	4435	4433	2
4447	4449	4437	11549	2
4464	4467	4465	4470	2
4473	4464	4468	4467	2
4468	4467	4469	4475	2
4474	4466	4468	4469	2
4466	4469	4465	4476	2
4472	4464	4466	4465	2
4476	4478	4466	6472	2
4470	4471	4464	4462	2
4475	4477	4468	11565	2
662	665	661	672	2
668	660	662	661	2
660	663	661	666	2
669	660	664	663	2
664	665	663	671	2
670	662	664	665	2
671	673	664	1553	2
672	674	662	675	2
666	667	660	687	2
4493	4496	4494	4499	2
4501	4493	4495	4494	2
4495	4494	4498	4505	2
4503	4495	4497	4498	2
4497	4498	4496	4504	2
4502	4493	4497	4496	2
4504	4506	4497	2016	2
4499	4500	4493	4489	2
4505	4507	4495	813	2
691	692	694	697	2
700	691	695	694	2
695	696	694	702	2
701	693	695	696	2
693	696	692	703	2
699	691	693	692	2
703	705	693	706	2
697	698	691	720	2
702	704	695	13343	2
4522	4523	4525	4528	2
4531	4526	4522	4525	2
4526	4527	4525	4533	2
4532	4526	4524	4527	2
4524	4523	4527	4534	2
4530	4524	4522	4523	2
4534	4536	4524	2710	2
4528	4529	4522	4520	2
4533	4535	4526	6836	2
4551	4552	4554	4557	2
4560	4555	4551	4554	2
4555	4554	4556	4562	2
4561	4553	4555	4556	2
4553	4552	4556	4563	2
4559	4551	4553	4552	2
4563	4565	4553	11579	2
4557	4558	4551	4547	2
4562	4564	4555	11591	2
4580	4581	4583	4586	2
4589	4584	4580	4583	2
4584	4585	4583	4591	2
4590	4584	4582	4585	2
4582	4581	4585	4592	2
4588	4582	4580	4581	2
4592	4594	4582	2496	2
4586	4587	4580	4576	2
4591	4593	4584	11607	2
4609	4612	4610	4615	2
4617	4609	4611	4610	2
4611	4610	4614	4621	2
4619	4613	4611	4614	2
4613	4614	4612	4620	2
4618	4613	4609	4612	2
4620	4622	4613	11621	2
4615	4616	4609	4607	2
4621	4623	4611	7548	2
722	723	725	728	2
731	726	722	725	2
726	727	725	733	2
732	726	724	727	2
724	727	723	734	2
730	722	724	723	2
734	736	724	737	2
728	729	722	751	2
733	735	726	13817	2
753	754	756	759	2
762	757	753	756	2
757	758	756	764	2
763	755	757	758	2
755	758	754	765	2
761	753	755	754	2
765	767	755	768	2
759	760	753	782	2
764	766	757	3820	2
784	787	785	790	2
792	784	786	785	2
786	785	789	796	2
794	788	786	789	2
788	787	789	795	2
793	788	784	787	2
795	797	788	2577	2
790	791	784	811	2
796	798	786	799	2
4640	4643	4639	4650	2
4646	4640	4638	4639	2
4638	4641	4639	4644	2
4647	4638	4642	4641	2
4642	4643	4641	4649	2
4648	4640	4642	4643	2
4649	4651	4642	11635	2
4650	4652	4640	11649	2
4644	4645	4638	4636	2
4671	4672	4670	4678	2
4677	4671	4669	4672	2
4669	4668	4672	4679	2
4675	4667	4669	4668	2
4667	4670	4668	4673	2
4676	4667	4671	4670	2
4673	4674	4667	9300	2
4678	4680	4671	4663	2
4679	4681	4669	11663	2
4696	4697	4699	4702	2
4704	4696	4698	4697	2
4698	4701	4697	4708	2
4706	4698	4700	4701	2
4700	4701	4699	4707	2
4705	4700	4696	4699	2
4707	4709	4700	11675	2
4702	4703	4696	4694	2
4708	4710	4698	5711	2
38	39	37	44	2
48	38	36	37	2
36	41	37	34	2
50	36	40	41	2
40	39	41	42	2
49	38	40	39	2
42	43	40	61	2
44	46	38	45	2
34	35	36	33	2
4725	4728	4726	4731	2
4733	4727	4725	4726	2
4727	4726	4730	4737	2
4735	4729	4727	4730	2
4729	4730	4728	4736	2
4734	4729	4725	4728	2
4736	4738	4729	11689	2
4731	4732	4725	4721	2
4737	4739	4727	11705	2
4754	4755	4757	4760	2
4763	4758	4754	4757	2
4758	4759	4757	4765	2
4764	4758	4756	4759	2
4756	4755	4759	4766	2
4762	4754	4756	4755	2
4766	4768	4756	11717	2
4760	4761	4754	4752	2
4765	4767	4758	11731	2
817	820	816	827	2
823	815	817	816	2
815	818	816	821	2
824	815	819	818	2
819	820	818	826	2
825	817	819	820	2
826	828	819	12221	2
827	829	817	830	2
821	822	815	844	2
4783	4786	4784	4789	2
4792	4783	4787	4786	2
4787	4786	4788	4794	2
4793	4787	4785	4788	2
4785	4788	4784	4795	2
4791	4785	4783	4784	2
4795	4797	4785	11453	2
4789	4790	4783	4779	2
4794	4796	4787	11747	2
4812	4813	4815	4818	2
4821	4816	4812	4815	2
4816	4815	4817	4823	2
4822	4814	4816	4817	2
4814	4813	4817	4824	2
4820	4814	4812	4813	2
4824	4826	4814	10717	2
4818	4819	4812	4808	2
4823	4825	4816	11761	2
848	851	847	858	2
856	850	848	851	2
850	851	849	857	2
855	850	846	849	2
846	847	849	852	2
854	846	848	847	2
852	853	846	875	2
858	860	848	861	2
857	859	850	4665	2
4841	4844	4842	4847	2
4850	4845	4841	4844	2
4846	4845	4844	4852	2
4851	4843	4845	4846	2
4843	4842	4846	4853	2
4849	4843	4841	4842	2
4853	4855	4843	11775	2
4847	4848	4841	4837	2
4852	4854	4845	10160	2
4856	4857	4859	4862	2
4865	4856	4860	4859	2
4860	4861	4859	4867	2
4866	4858	4860	4861	2
4858	4857	4861	4868	2
4864	4856	4858	4857	2
4868	4870	4858	11787	2
4862	4863	4856	4839	2
4867	4869	4860	11803	2
4885	4886	4888	4891	2
4893	4887	4885	4886	2
4887	4890	4886	4897	2
4895	4889	4887	4890	2
4889	4888	4890	4896	2
4894	4885	4889	4888	2
4896	4898	4889	11815	2
4891	4892	4885	4883	2
4897	4899	4887	9184	2
4914	4917	4915	4920	2
4923	4914	4918	4917	2
4918	4919	4917	4925	2
4924	4916	4918	4919	2
4916	4915	4919	4926	2
4922	4914	4916	4915	2
4926	4928	4916	11831	2
4920	4921	4914	4910	2
4925	4927	4918	11845	2
4943	4946	4944	4949	2
4951	4945	4943	4944	2
4945	4944	4948	4955	2
4953	4945	4947	4948	2
4947	4946	4948	4954	2
4952	4943	4947	4946	2
4954	4956	4947	11383	2
4949	4950	4943	4941	2
4955	4957	4945	5492	2
893	898	894	891	2
906	893	897	898	2
897	898	896	899	2
905	897	895	896	2
895	896	894	901	2
904	895	893	894	2
901	903	895	902	2
891	892	893	887	2
899	900	897	11201	2
4972	4975	4973	4978	2
4980	4972	4974	4973	2
4974	4973	4977	4984	2
4982	4976	4974	4977	2
4976	4975	4977	4983	2
4981	4976	4972	4975	2
4983	4985	4976	2725	2
4978	4979	4972	4970	2
4984	4986	4974	11857	2
907	908	910	913	2
916	911	907	910	2
911	912	910	918	2
917	911	909	912	2
909	912	908	919	2
915	909	907	908	2
919	921	909	922	2
913	914	907	936	2
918	920	911	11997	2
4987	4990	4988	4993	2
4995	4987	4989	4988	2
4989	4992	4988	4999	2
4997	4991	4989	4992	2
4991	4992	4990	4998	2
4996	4991	4987	4990	2
4998	5000	4991	2740	2
4993	4994	4987	749	2
4999	5001	4989	1985	2
5016	5019	5017	5022	2
5024	5018	5016	5017	2
5018	5017	5021	5028	2
5026	5018	5020	5021	2
5020	5019	5021	5027	2
5025	5016	5020	5019	2
5027	5029	5020	2372	2
5022	5023	5016	5012	2
5028	5030	5018	11871	2
938	939	941	944	2
946	938	940	939	2
940	939	943	950	2
948	942	940	943	2
942	943	941	949	2
947	942	938	941	2
949	951	942	12655	2
944	945	938	967	2
950	952	940	953	2
5045	5046	5048	5051	2
5053	5045	5047	5046	2
5047	5046	5050	5057	2
5055	5047	5049	5050	2
5049	5050	5048	5056	2
5054	5045	5049	5048	2
5056	5058	5049	7009	2
5051	5052	5045	5043	2
5057	5059	5047	9682	2
5060	5061	5063	5066	2
5068	5062	5060	5061	2
5062	5065	5061	5072	2
5070	5062	5064	5065	2
5064	5063	5065	5071	2
5069	5060	5064	5063	2
5071	5073	5064	7783	2
5066	5067	5060	2755	2
5072	5074	5062	11885	2
5089	5090	5092	5095	2
5097	5089	5091	5090	2
5091	5090	5094	5101	2
5099	5091	5093	5094	2
5093	5092	5094	5100	2
5098	5093	5089	5092	2
5100	5102	5093	2770	2
5095	5096	5089	5087	2
5101	5103	5091	11899	2
5118	5119	5121	5124	2
5126	5120	5118	5119	2
5120	5123	5119	5130	2
5128	5122	5120	5123	2
5122	5123	5121	5129	2
5127	5118	5122	5121	2
5129	5131	5122	11915	2
5124	5125	5118	5114	2
5130	5132	5120	11929	2
5147	5148	5150	5153	2
5156	5147	5151	5150	2
5151	5150	5152	5158	2
5157	5149	5151	5152	2
5149	5152	5148	5159	2
5155	5147	5149	5148	2
5159	5161	5149	11941	2
5153	5154	5147	5145	2
5158	5160	5151	11955	2
5176	5177	5179	5182	2
5185	5180	5176	5179	2
5180	5181	5179	5187	2
5186	5178	5180	5181	2
5178	5177	5181	5188	2
5184	5176	5178	5177	2
5188	5190	5178	6661	2
5182	5183	5176	5174	2
5187	5189	5180	8145	2
969	970	972	975	2
978	969	973	972	2
972	974	973	980	2
979	971	973	974	2
971	974	970	981	2
977	971	969	970	2
981	983	971	984	2
975	976	969	996	2
980	982	973	13637	2
1000	1003	1001	1006	2
1008	1002	1000	1001	2
1002	1005	1001	1012	2
1010	1004	1002	1005	2
1004	1003	1005	1011	2
1009	1000	1004	1003	2
1011	1013	1004	13453	2
1006	1007	1000	1029	2
1012	1014	1002	1015	2
5205	5208	5206	5211	2
5214	5209	5205	5208	2
5209	5208	5210	5216	2
5215	5207	5209	5210	2
5207	5206	5210	5217	2
5213	5205	5207	5206	2
5217	5219	5207	11971	2
5211	5212	5205	5201	2
5216	5218	5209	11985	2
5234	5235	5237	5240	2
5243	5238	5234	5237	2
5238	5239	5237	5245	2
5244	5236	5238	5239	2
5236	5235	5239	5246	2
5242	5236	5234	5235	2
5246	5248	5236	11843	2
5240	5241	5234	5230	2
5245	5247	5238	2785	2
5263	5264	5266	5269	2
5271	5263	5265	5264	2
5265	5264	5268	5275	2
5273	5265	5267	5268	2
5267	5266	5268	5274	2
5272	5263	5267	5266	2
5274	5276	5267	565	2
5269	5270	5263	5261	2
5275	5277	5265	11999	2
5292	5295	5293	5298	2
5300	5292	5294	5293	2
5294	5293	5297	5304	2
5302	5294	5296	5297	2
5296	5295	5297	5303	2
5301	5292	5296	5295	2
5303	5305	5296	2800	2
5298	5299	5292	5290	2
5304	5306	5294	9518	2
5321	5324	5322	5327	2
5330	5325	5321	5324	2
5325	5326	5324	5332	2
5331	5323	5325	5326	2
5323	5322	5326	5333	2
5329	5323	5321	5322	2
5333	5335	5323	4578	2
5327	5328	5321	5317	2
5332	5334	5325	9986	2
5336	5337	5339	5342	2
5345	5339	5340	5336	2
5340	5341	5339	5347	2
5346	5338	5340	5341	2
5338	5341	5337	5348	2
5344	5338	5336	5337	2
5348	5350	5338	8074	2
5342	5343	5336	1891	2
5347	5349	5340	12011	2
5365	5366	5368	5371	2
5374	5369	5365	5368	2
5369	5370	5368	5376	2
5375	5367	5369	5370	2
5367	5366	5370	5377	2
5373	5367	5365	5366	2
5377	5379	5367	8819	2
5371	5372	5365	5361	2
5376	5378	5369	12027	2
5394	5395	5397	5400	2
5403	5394	5398	5397	2
5398	5397	5399	5405	2
5404	5399	5396	5398	2
5395	5396	5399	5406	2
5402	5394	5396	5395	2
5406	5408	5396	8543	2
5400	5401	5394	5392	2
5405	5407	5398	2815	2
5423	5426	5424	5429	2
5432	5423	5427	5426	2
5427	5426	5428	5434	2
5433	5427	5425	5428	2
5428	5424	5425	5435	2
5431	5425	5424	5423	2
5435	5437	5425	12039	2
5429	5430	5423	5421	2
5434	5436	5427	4171	2
5452	5455	5453	5458	2
5461	5456	5452	5455	2
5456	5455	5457	5463	2
5462	5454	5456	5457	2
5454	5457	5453	5464	2
5460	5454	5452	5453	2
5464	5466	5454	12053	2
5458	5459	5452	5450	2
5463	5465	5456	8470	2
5467	5468	5470	5473	2
5475	5469	5467	5468	2
5469	5472	5468	5479	2
5477	5471	5469	5472	2
5471	5470	5472	5478	2
5476	5467	5471	5470	2
5478	5480	5471	9579	2
5473	5474	5467	2830	2
5479	5481	5469	12067	2
5496	5499	5497	5502	2
5504	5498	5496	5497	2
5498	5501	5497	5508	2
5506	5498	5500	5501	2
5500	5501	5499	5507	2
5505	5496	5500	5499	2
5507	5509	5500	10133	2
5502	5503	5496	5494	2
5508	5510	5498	12083	2
5525	5526	5528	5531	2
5534	5525	5529	5528	2
5528	5530	5529	5536	2
5535	5527	5529	5530	2
5527	5530	5526	5537	2
5533	5527	5525	5526	2
5537	5539	5527	12097	2
5531	5532	5525	5523	2
5536	5538	5529	12109	2
1031	1034	1032	1037	2
1040	1035	1031	1034	2
1035	1034	1036	1042	2
1041	1035	1033	1036	2
1033	1032	1036	1043	2
1039	1031	1033	1032	2
1043	1045	1033	1046	2
1037	1038	1031	1060	2
1042	1044	1035	4300	2
5554	5555	5557	5560	2
5563	5558	5554	5557	2
5558	5559	5557	5565	2
5564	5556	5558	5559	2
5556	5555	5559	5566	2
5562	5554	5556	5555	2
5566	5568	5556	1072	2
5560	5561	5554	5552	2
5565	5567	5558	12123	2
5571	5570	5574	5581	2
5577	5571	5569	5570	2
5569	5572	5570	5575	2
5578	5569	5573	5572	2
5573	5574	5572	5580	2
5579	5573	5571	5574	2
5580	5582	5573	12137	2
5581	5583	5571	12153	2
5575	5576	5569	1340	2
5584	5587	5585	5590	2
5593	5584	5588	5587	2
5588	5587	5589	5595	2
5594	5588	5586	5589	2
5586	5589	5585	5596	2
5592	5586	5584	5585	2
5596	5598	5586	12165	2
5590	5591	5584	4111	2
5595	5597	5588	12181	2
5613	5614	5616	5619	2
5622	5617	5613	5616	2
5617	5616	5618	5624	2
5623	5617	5615	5618	2
5615	5618	5614	5625	2
5621	5613	5615	5614	2
5625	5627	5615	8439	2
5619	5620	5613	5609	2
5624	5626	5617	12193	2
1078	1079	1083	1076	2
1089	1080	1078	1079	2
1080	1081	1079	1086	2
1090	1082	1080	1081	2
1082	1083	1081	1084	2
1091	1078	1082	1083	2
1084	1085	1082	12333	2
1076	1077	1078	1074	2
1086	1088	1080	1087	2
5628	5631	5629	5634	2
5637	5628	5632	5631	2
5632	5633	5631	5639	2
5638	5632	5630	5633	2
5630	5633	5629	5640	2
5636	5628	5630	5629	2
5640	5642	5630	12207	2
5634	5635	5628	2845	2
5639	5641	5632	2860	2
1092	1093	1095	1098	2
1100	1092	1094	1093	2
1094	1097	1093	1104	2
1102	1094	1096	1097	2
1096	1095	1097	1103	2
1101	1092	1096	1095	2
1103	1105	1096	11023	2
1098	1099	1092	1119	2
1104	1106	1094	1107	2
5657	5660	5658	5663	2
5666	5661	5657	5660	2
5661	5662	5660	5668	2
5667	5661	5659	5662	2
5659	5662	5658	5669	2
5665	5657	5659	5658	2
5669	5671	5659	8792	2
5663	5664	5657	5653	2
5668	5670	5661	7594	2
1125	1124	1128	1135	2
1131	1125	1123	1124	2
1123	1126	1124	1129	2
1132	1123	1127	1126	2
1127	1128	1126	1134	2
1133	1127	1125	1128	2
1134	1136	1127	6732	2
1135	1137	1125	1138	2
1129	1130	1123	1150	2
5690	5689	5691	5697	2
5695	5686	5690	5689	2
5686	5687	5689	5692	2
5694	5686	5688	5687	2
5688	5691	5687	5698	2
5696	5690	5688	5691	2
5698	5700	5688	5684	2
5697	5699	5690	12223	2
5692	5693	5686	12235	2
5715	5718	5716	5721	2
5723	5717	5715	5716	2
5717	5720	5716	5727	2
5725	5717	5719	5720	2
5719	5720	5718	5726	2
5724	5719	5715	5718	2
5726	5728	5719	12095	2
5721	5722	5715	5713	2
5727	5729	5717	12251	2
5730	5731	5733	5736	2
5738	5730	5732	5731	2
5732	5735	5731	5742	2
5740	5732	5734	5735	2
5734	5733	5735	5741	2
5739	5734	5730	5733	2
5741	5743	5734	8689	2
5736	5737	5730	2875	2
5742	5744	5732	12263	2
1154	1155	1157	1160	2
1162	1156	1154	1155	2
1156	1159	1155	1166	2
1164	1156	1158	1159	2
1158	1159	1157	1165	2
1163	1158	1154	1157	2
1165	1167	1158	11691	2
1160	1161	1154	1058	2
1166	1168	1156	1169	2
5759	5760	5762	5765	2
5768	5759	5763	5762	2
5763	5762	5764	5770	2
5769	5761	5763	5764	2
5761	5764	5760	5771	2
5767	5761	5759	5760	2
5771	5773	5761	12279	2
5765	5766	5759	5755	2
5770	5772	5763	2890	2
1171	1174	1172	1177	2
1179	1171	1173	1172	2
1173	1176	1172	1183	2
1181	1175	1173	1176	2
1175	1176	1174	1182	2
1180	1171	1175	1174	2
1182	1184	1175	1614	2
1177	1178	1171	1198	2
1183	1185	1173	1186	2
1204	1207	1203	1214	2
1210	1204	1202	1203	2
1202	1205	1203	1208	2
1211	1206	1202	1205	2
1206	1205	1207	1213	2
1212	1206	1204	1207	2
1213	1215	1206	13131	2
1214	1216	1204	1217	2
1208	1209	1202	1229	2
5792	5793	5791	5799	2
5798	5792	5790	5793	2
5790	5793	5789	5800	2
5796	5788	5790	5789	2
5788	5789	5791	5794	2
5797	5792	5788	5791	2
5794	5795	5788	5784	2
5799	5801	5792	12291	2
5800	5802	5790	12305	2
5803	5804	5806	5809	2
5812	5807	5803	5806	2
5807	5808	5806	5814	2
5813	5807	5805	5808	2
5805	5808	5804	5815	2
5811	5805	5803	5804	2
5815	5817	5805	12319	2
5809	5810	5803	1200	2
5814	5816	5807	12335	2
5832	5833	5835	5838	2
5841	5836	5832	5835	2
5836	5835	5837	5843	2
5842	5834	5836	5837	2
5834	5833	5837	5844	2
5840	5834	5832	5833	2
5844	5846	5834	2905	2
5838	5839	5832	5830	2
5843	5845	5836	12347	2
5861	5862	5864	5867	2
5869	5863	5861	5862	2
5863	5862	5866	5873	2
5871	5863	5865	5866	2
5865	5866	5864	5872	2
5870	5865	5861	5864	2
5872	5874	5865	12363	2
5867	5868	5861	5857	2
5873	5875	5863	12375	2
5890	5893	5891	5896	2
5898	5890	5892	5891	2
5892	5895	5891	5902	2
5900	5894	5892	5895	2
5894	5893	5895	5901	2
5899	5890	5894	5893	2
5901	5903	5894	12391	2
5896	5897	5890	5886	2
5902	5904	5892	12209	2
5905	5908	5906	5911	2
5914	5909	5905	5908	2
5909	5908	5910	5916	2
5915	5907	5909	5910	2
5907	5906	5910	5917	2
5913	5907	5905	5906	2
5917	5919	5907	285	2
5911	5912	5905	518	2
5916	5918	5909	7111	2
5920	5921	5923	5926	2
5929	5924	5920	5923	2
5924	5923	5925	5931	2
5930	5922	5924	5925	2
5922	5925	5921	5932	2
5928	5922	5920	5921	2
5932	5934	5922	11577	2
5926	5927	5920	5859	2
5931	5933	5924	10774	2
1252	1251	1253	1258	2
1261	1252	1250	1251	2
1250	1255	1251	1248	2
1263	1254	1250	1255	2
1254	1253	1255	1256	2
1262	1252	1254	1253	2
1256	1257	1254	11873	2
1258	1260	1252	1259	2
1248	1249	1250	1246	2
5935	5936	5938	5941	2
5943	5935	5937	5936	2
5937	5940	5936	5947	2
5945	5939	5937	5940	2
5939	5940	5938	5946	2
5944	5935	5939	5938	2
5946	5948	5939	9913	2
5941	5942	5935	965	2
5947	5949	5937	12403	2
5964	5965	5967	5970	2
5973	5968	5964	5967	2
5968	5967	5969	5975	2
5974	5968	5966	5969	2
5966	5969	5965	5976	2
5972	5966	5965	5964	2
5976	5978	5966	12417	2
5970	5971	5964	5962	2
5975	5977	5968	9871	2
5993	5996	5994	5999	2
6002	5993	5997	5996	2
5997	5996	5998	6004	2
6003	5995	5997	5998	2
5995	5998	5994	6005	2
6001	5995	5993	5994	2
6005	6007	5995	2920	2
5999	6000	5993	5991	2
6004	6006	5997	12431	2
6009	6011	6008	6014	2
6017	6008	6012	6011	2
6012	6011	6013	6019	2
6018	6010	6012	6013	2
6010	6013	6009	6020	2
6016	6008	6010	6009	2
6020	6022	6010	12445	2
6014	6015	6008	4968	2
6019	6021	6012	12459	2
1264	1265	1267	1270	2
1272	1266	1264	1265	2
1266	1265	1269	1276	2
1274	1266	1268	1269	2
1268	1267	1269	1275	2
1273	1268	1264	1267	2
1275	1277	1268	13467	2
1270	1271	1264	1291	2
1276	1278	1266	1279	2
6037	6040	6038	6043	2
6046	6037	6041	6040	2
6041	6042	6040	6048	2
6047	6039	6041	6042	2
6039	6042	6038	6049	2
6045	6037	6039	6038	2
6049	6051	6039	8616	2
6043	6044	6037	6033	2
6048	6050	6041	2403	2
6066	6067	6069	6072	2
6075	6066	6070	6069	2
6070	6069	6071	6077	2
6076	6070	6068	6071	2
6068	6071	6067	6078	2
6074	6066	6068	6067	2
6078	6080	6068	12475	2
6072	6073	6066	6064	2
6077	6079	6070	4460	2
1297	1302	1298	1295	2
1308	1297	1299	1298	2
1299	1298	1300	1305	2
1309	1299	1301	1300	2
1301	1302	1300	1303	2
1310	1301	1297	1302	2
1303	1304	1301	13847	2
1295	1296	1297	780	2
1305	1307	1299	1306	2
6099	6098	6100	6106	2
6105	6099	6097	6100	2
6097	6100	6096	6107	2
6103	6097	6095	6096	2
6095	6098	6096	6101	2
6104	6095	6099	6098	2
6101	6102	6095	349	2
6106	6108	6099	6091	2
6107	6109	6097	12489	2
6124	6125	6127	6130	2
6133	6124	6128	6127	2
6128	6129	6127	6135	2
6134	6128	6126	6129	2
6126	6129	6125	6136	2
6132	6126	6124	6125	2
6136	6138	6126	718	2
6130	6131	6124	6122	2
6135	6137	6128	2061	2
6153	6156	6154	6159	2
6161	6153	6155	6154	2
6155	6158	6154	6165	2
6163	6155	6157	6158	2
6157	6156	6158	6164	2
6162	6157	6153	6156	2
6164	6166	6157	12503	2
6159	6160	6153	6149	2
6165	6167	6155	12277	2
6182	6185	6183	6188	2
6190	6182	6184	6183	2
6184	6183	6187	6194	2
6192	6186	6184	6187	2
6186	6187	6185	6193	2
6191	6186	6182	6185	2
6193	6195	6186	10511	2
6188	6189	6182	6178	2
6194	6196	6184	12515	2
6211	6214	6212	6217	2
6219	6213	6211	6212	2
6213	6216	6212	6223	2
6221	6215	6213	6216	2
6215	6216	6214	6222	2
6220	6215	6211	6214	2
6222	6224	6215	12531	2
6217	6218	6211	6207	2
6223	6225	6213	12545	2
6226	6227	6229	6232	2
6235	6226	6230	6229	2
6230	6229	6231	6237	2
6236	6228	6230	6231	2
6228	6227	6231	6238	2
6234	6226	6228	6227	2
6238	6240	6228	7446	2
6232	6233	6226	4605	2
6237	6239	6230	12557	2
6255	6258	6256	6261	2
6264	6259	6255	6258	2
6259	6260	6258	6266	2
6265	6257	6259	6260	2
6257	6260	6256	6267	2
6263	6255	6257	6256	2
6267	6269	6257	12571	2
6261	6262	6255	6253	2
6266	6268	6259	4026	2
6270	6273	6271	6276	2
6279	6270	6274	6273	2
6274	6273	6275	6281	2
6280	6274	6272	6275	2
6272	6271	6275	6282	2
6278	6272	6270	6271	2
6282	6284	6272	5989	2
6276	6277	6270	873	2
6281	6283	6274	11661	2
6299	6302	6300	6305	2
6308	6303	6299	6302	2
6304	6302	6303	6310	2
6309	6301	6303	6304	2
6301	6300	6304	6311	2
6307	6299	6301	6300	2
6311	6313	6301	12585	2
6305	6306	6299	6295	2
6310	6312	6303	12599	2
6314	6317	6315	6320	2
6323	6314	6318	6317	2
6318	6317	6319	6325	2
6324	6318	6316	6319	2
6316	6315	6319	6326	2
6322	6314	6316	6315	2
6326	6328	6316	189	2
6320	6321	6314	6062	2
6325	6327	6318	12613	2
6329	6332	6330	6335	2
6337	6331	6329	6330	2
6331	6330	6334	6341	2
6339	6333	6331	6334	2
6333	6332	6334	6340	2
6338	6333	6329	6332	2
6340	6342	6333	4723	2
6335	6336	6329	442	2
6341	6343	6331	12629	2
6358	6359	6361	6364	2
6366	6358	6360	6359	2
6360	6359	6363	6370	2
6368	6360	6362	6363	2
6362	6363	6361	6369	2
6367	6362	6358	6361	2
6369	6371	6362	7868	2
6364	6365	6358	6356	2
6370	6372	6360	5319	2
6387	6388	6390	6393	2
6396	6387	6391	6390	2
6391	6392	6390	6398	2
6397	6391	6389	6392	2
6389	6388	6392	6399	2
6395	6387	6389	6388	2
6399	6401	6389	12641	2
6393	6394	6387	6385	2
6398	6400	6391	1630	2
6416	6419	6417	6422	2
6425	6416	6420	6419	2
6420	6421	6419	6427	2
6426	6418	6420	6421	2
6418	6421	6417	6428	2
6424	6418	6416	6417	2
6428	6430	6418	12657	2
6422	6423	6416	6414	2
6427	6429	6420	7171	2
6445	6446	6448	6451	2
6454	6445	6449	6448	2
6449	6450	6448	6456	2
6455	6449	6447	6450	2
6447	6446	6450	6457	2
6453	6447	6445	6446	2
6457	6459	6447	7053	2
6451	6452	6445	6441	2
6456	6458	6449	12461	2
6476	6479	6475	6486	2
6482	6474	6476	6475	2
6474	6477	6475	6480	2
6483	6474	6478	6477	2
6478	6477	6479	6485	2
6484	6476	6478	6479	2
6485	6487	6478	6297	2
6486	6488	6476	12669	2
6480	6481	6474	6470	2
6503	6506	6504	6509	2
6512	6503	6507	6506	2
6507	6508	6506	6514	2
6513	6507	6505	6508	2
6505	6504	6508	6515	2
6511	6503	6505	6504	2
6515	6517	6505	12683	2
6509	6510	6503	6501	2
6514	6516	6507	12699	2
1313	1316	1312	1323	2
1319	1313	1311	1312	2
1311	1312	1314	1317	2
1320	1315	1311	1314	2
1315	1314	1316	1322	2
1321	1315	1313	1316	2
1322	1324	1315	10191	2
1323	1325	1313	1326	2
1317	1318	1311	1338	2
1346	1345	1347	1353	2
1352	1344	1346	1347	2
1344	1347	1343	1354	2
1350	1344	1342	1343	2
1342	1343	1345	1348	2
1351	1342	1346	1345	2
1348	1349	1342	13777	2
1353	1355	1346	1371	2
1354	1356	1344	1357	2
6534	6533	6537	6544	2
6540	6532	6534	6533	2
6532	6533	6535	6538	2
6541	6532	6536	6535	2
6536	6537	6535	6543	2
6542	6536	6534	6537	2
6543	6545	6536	2935	2
6544	6546	6534	6530	2
6538	6539	6532	8994	2
6547	6550	6548	6553	2
6555	6549	6547	6548	2
6549	6552	6548	6559	2
6557	6551	6549	6552	2
6551	6550	6552	6558	2
6556	6551	6547	6550	2
6558	6560	6551	6863	2
6553	6554	6547	2950	2
6559	6561	6549	2965	2
6576	6579	6577	6582	2
6584	6578	6576	6577	2
6578	6581	6577	6588	2
6586	6578	6580	6581	2
6580	6581	6579	6587	2
6585	6576	6580	6579	2
6587	6589	6580	12713	2
6582	6583	6576	6574	2
6588	6590	6578	11241	2
6605	6608	6606	6611	2
6613	6607	6605	6606	2
6607	6606	6610	6617	2
6615	6609	6607	6610	2
6609	6610	6608	6616	2
6614	6605	6609	6608	2
6616	6618	6609	12249	2
6611	6612	6605	6601	2
6617	6619	6607	12543	2
6634	6635	6637	6640	2
6642	6636	6634	6635	2
6636	6635	6639	6646	2
6644	6636	6638	6639	2
6638	6639	6637	6645	2
6643	6638	6634	6637	2
6645	6647	6638	12725	2
6640	6641	6634	6632	2
6646	6648	6636	12739	2
6663	6664	6666	6669	2
6672	6663	6667	6666	2
6667	6668	6666	6674	2
6673	6665	6667	6668	2
6665	6664	6668	6675	2
6671	6663	6665	6664	2
6675	6677	6665	2980	2
6669	6670	6663	6659	2
6674	6676	6667	10467	2
6696	6697	6695	6703	2
6702	6696	6694	6697	2
6694	6697	6693	6704	2
6700	6692	6694	6693	2
6692	6693	6695	6698	2
6701	6696	6692	6695	2
6698	6699	6692	6688	2
6703	6705	6696	12753	2
6704	6706	6694	6894	2
6707	6708	6710	6713	2
6715	6709	6707	6708	2
6709	6708	6712	6719	2
6717	6709	6711	6712	2
6711	6710	6712	6718	2
6716	6711	6707	6710	2
6718	6720	6711	11327	2
6713	6714	6707	2995	2
6719	6721	6709	12767	2
6736	6739	6737	6742	2
6744	6738	6736	6737	2
6738	6737	6741	6748	2
6746	6740	6738	6741	2
6740	6739	6741	6747	2
6745	6740	6736	6739	2
6747	6749	6740	1152	2
6742	6743	6736	6734	2
6748	6750	6738	12781	2
6765	6766	6768	6771	2
6773	6767	6765	6766	2
6767	6766	6770	6777	2
6775	6767	6769	6770	2
6769	6768	6770	6776	2
6774	6769	6765	6768	2
6776	6778	6769	1508	2
6771	6772	6765	6761	2
6777	6779	6767	12795	2
6780	6783	6781	6786	2
6788	6782	6780	6781	2
6782	6785	6781	6792	2
6790	6784	6782	6785	2
6784	6783	6785	6791	2
6789	6784	6780	6783	2
6791	6793	6784	157	2
6786	6787	6780	2343	2
6792	6794	6782	11271	2
6812	6810	6809	6815	2
6817	6809	6811	6810	2
6811	6810	6814	6821	2
6819	6813	6811	6814	2
6813	6814	6812	6820	2
6818	6809	6813	6812	2
6820	6822	6813	11311	2
6815	6816	6809	6805	2
6821	6823	6811	12643	2
6838	6841	6839	6844	2
6846	6838	6840	6839	2
6840	6839	6843	6850	2
6848	6842	6840	6843	2
6842	6841	6843	6849	2
6847	6838	6842	6841	2
6849	6851	6842	11745	2
6844	6845	6838	6834	2
6850	6852	6840	12769	2
6867	6868	6870	6873	2
6876	6871	6867	6870	2
6871	6872	6870	6878	2
6877	6869	6871	6872	2
6869	6872	6868	6879	2
6875	6867	6869	6868	2
6879	6881	6869	7244	2
6873	6874	6867	6865	2
6878	6880	6871	3939	2
1373	1374	1376	1379	2
1381	1375	1373	1374	2
1375	1374	1378	1385	2
1383	1375	1377	1378	2
1378	1376	1377	1384	2
1382	1376	1377	1373	2
1384	1386	1377	11927	2
1379	1380	1373	1400	2
1385	1387	1375	1388	2
1404	1405	1407	1410	2
1413	1404	1408	1407	2
1408	1407	1409	1415	2
1414	1408	1406	1409	2
1406	1409	1405	1416	2
1412	1406	1404	1405	2
1416	1418	1406	1419	2
1410	1411	1404	1433	2
1415	1417	1408	12991	2
6896	6897	6899	6902	2
6904	6896	6898	6897	2
6898	6901	6897	6908	2
6906	6900	6898	6901	2
6900	6899	6901	6907	2
6905	6900	6896	6899	2
6907	6909	6900	7812	2
6902	6903	6896	6892	2
6908	6910	6898	6120	2
6911	6912	6914	6917	2
6919	6913	6911	6912	2
6913	6916	6912	6923	2
6921	6916	6915	6913	2
6915	6914	6916	6922	2
6920	6911	6915	6914	2
6922	6924	6915	4431	2
6917	6918	6911	3010	2
6923	6925	6913	11859	2
6940	6943	6941	6946	2
6948	6940	6942	6941	2
6945	6941	6942	6952	2
6950	6942	6944	6945	2
6943	6944	6945	6951	2
6949	6944	6940	6943	2
6951	6953	6944	7972	2
6946	6947	6940	6938	2
6952	6954	6942	12811	2
6973	6972	6974	6980	2
6978	6973	6969	6972	2
6969	6972	6970	6975	2
6977	6971	6969	6970	2
6971	6970	6974	6981	2
6979	6971	6973	6974	2
6981	6983	6971	12823	2
6980	6982	6973	6965	2
6975	6976	6969	10820	2
1451	1452	1456	1449	2
1464	1451	1455	1456	2
1455	1454	1456	1457	2
1463	1453	1455	1454	2
1453	1452	1454	1459	2
1462	1453	1451	1452	2
1459	1461	1453	1460	2
1449	1450	1451	1447	2
1457	1458	1455	11437	2
6984	6985	6987	6990	2
6993	6984	6988	6987	2
6988	6987	6989	6995	2
6994	6986	6988	6989	2
6986	6989	6985	6996	2
6992	6984	6986	6985	2
6996	6998	6986	11467	2
6990	6991	6984	1445	2
6995	6997	6988	12839	2
1467	1470	1466	1477	2
1473	1465	1467	1466	2
1465	1466	1468	1471	2
1474	1465	1469	1468	2
1469	1470	1468	1476	2
1475	1467	1469	1470	2
1476	1478	1469	3790	2
1477	1479	1467	1480	2
1471	1472	1465	1492	2
7013	7016	7014	7019	2
7022	7013	7017	7016	2
7017	7018	7016	7024	2
7023	7017	7015	7018	2
7015	7014	7018	7025	2
7021	7015	7013	7014	2
7025	7027	7015	12321	2
7019	7020	7013	7011	2
7024	7026	7017	93	2
7033	7029	7030	7040	2
7036	7028	7030	7029	2
7028	7031	7029	7034	2
7037	7028	7032	7031	2
7032	7033	7031	7039	2
7038	7030	7032	7033	2
7039	7041	7032	1121	2
7040	7042	7030	12851	2
7034	7035	7028	3025	2
7057	7060	7058	7063	2
7065	7059	7057	7058	2
7059	7058	7062	7069	2
7067	7061	7059	7062	2
7061	7060	7062	7068	2
7066	7057	7061	7060	2
7068	7070	7061	12501	2
7063	7064	7057	7055	2
7069	7071	7059	12865	2
7086	7089	7087	7092	2
7094	7086	7088	7087	2
7088	7087	7091	7098	2
7096	7090	7088	7091	2
7090	7091	7089	7097	2
7095	7090	7086	7089	2
7097	7099	7090	12881	2
7092	7093	7086	7082	2
7098	7100	7088	11537	2
7115	7118	7116	7121	2
7124	7119	7115	7118	2
7119	7120	7118	7126	2
7125	7117	7119	7120	2
7117	7116	7120	7127	2
7123	7115	7117	7116	2
7127	7129	7117	5288	2
7121	7122	7115	7113	2
7126	7128	7119	4750	2
7144	7145	7147	7150	2
7153	7148	7144	7147	2
7148	7149	7147	7155	2
7154	7148	7146	7149	2
7146	7149	7145	7156	2
7152	7146	7144	7145	2
7156	7158	7146	8045	2
7150	7151	7144	7142	2
7155	7157	7148	12685	2
1512	1517	1513	1510	2
1523	1512	1514	1513	2
1514	1515	1513	1520	2
1524	1516	1514	1515	2
1516	1517	1515	1518	2
1525	1516	1512	1517	2
1518	1519	1516	12433	2
1510	1511	1512	1506	2
1520	1522	1514	1521	2
7177	7178	7176	7184	2
7183	7175	7177	7178	2
7175	7178	7174	7185	2
7181	7175	7173	7174	2
7173	7176	7174	7179	2
7182	7177	7173	7176	2
7179	7180	7173	12895	2
7184	7186	7177	7169	2
7185	7187	7175	12909	2
7205	7206	7207	7213	2
7211	7206	7202	7205	2
7202	7205	7203	7208	2
7210	7204	7202	7203	2
7204	7203	7207	7214	2
7212	7206	7204	7207	2
7214	7216	7204	10102	2
7213	7215	7206	12601	2
7208	7209	7202	7200	2
72	71	73	74	2
82	72	68	73	2
68	73	69	66	2
80	68	70	69	2
70	69	71	76	2
81	72	70	71	2
76	78	70	77	2
74	75	72	95	2
66	67	68	65	2
7217	7218	7220	7223	2
7225	7219	7217	7218	2
7219	7222	7218	7229	2
7227	7221	7219	7222	2
7221	7222	7220	7228	2
7226	7217	7221	7220	2
7228	7230	7221	1369	2
7223	7224	7217	6035	2
7229	7231	7219	11551	2
7246	7247	7249	7252	2
7254	7248	7246	7247	2
7248	7251	7247	7258	2
7256	7250	7248	7251	2
7250	7251	7249	7257	2
7255	7250	7246	7249	2
7257	7259	7250	5786	2
7252	7253	7246	7242	2
7258	7260	7248	12293	2
7275	7276	7278	7281	2
7284	7279	7275	7278	2
7279	7280	7278	7286	2
7285	7277	7280	7279	2
7277	7276	7280	7287	2
7283	7275	7277	7276	2
7287	7289	7277	12013	2
7281	7282	7275	7273	2
7286	7288	7279	12923	2
7304	7305	7307	7310	2
7313	7308	7304	7307	2
7308	7309	7307	7315	2
7314	7306	7308	7309	2
7306	7305	7309	7316	2
7312	7304	7306	7305	2
7316	7318	7306	12727	2
7310	7311	7304	7300	2
7315	7317	7308	3040	2
7333	7336	7334	7339	2
7341	7335	7333	7334	2
7335	7338	7334	7345	2
7343	7337	7335	7338	2
7337	7338	7336	7344	2
7342	7333	7337	7336	2
7344	7346	7337	12937	2
7339	7340	7333	7331	2
7345	7347	7335	4256	2
1528	1531	1527	1538	2
1534	1528	1526	1527	2
1526	1527	1529	1532	2
1535	1530	1526	1529	2
1530	1529	1531	1537	2
1536	1528	1530	1531	2
1537	1539	1530	13707	2
1538	1540	1528	1541	2
1532	1533	1526	1555	2
1577	1578	1576	1579	2
1586	1577	1573	1578	2
1573	1574	1578	1571	2
1584	1573	1575	1574	2
1575	1574	1576	1581	2
1585	1577	1575	1576	2
1581	1583	1575	1582	2
1579	1580	1577	1569	2
1571	1572	1573	5682	2
7362	7365	7363	7368	2
7370	7362	7364	7363	2
7364	7363	7367	7374	2
7372	7366	7364	7367	2
7366	7367	7365	7373	2
7371	7366	7362	7365	2
7373	7375	7366	4549	2
7368	7369	7362	7360	2
7374	7376	7364	5203	2
1587	1588	1590	1593	2
1595	1587	1589	1588	2
1589	1592	1588	1599	2
1597	1591	1589	1592	2
1591	1590	1592	1598	2
1596	1587	1591	1590	2
1598	1600	1591	13789	2
1593	1594	1587	1616	2
1599	1601	1589	1602	2
1636	1635	1637	1642	2
1645	1636	1634	1635	2
1634	1639	1635	1632	2
1647	1638	1634	1639	2
1638	1639	1637	1640	2
1646	1638	1636	1637	2
1640	1641	1638	13775	2
1642	1644	1636	1643	2
1632	1633	1634	1628	2
7377	7380	7378	7383	2
7386	7377	7381	7380	2
7381	7380	7382	7388	2
7387	7381	7379	7382	2
7379	7382	7378	7389	2
7385	7379	7377	7378	2
7389	7391	7379	12951	2
7383	7384	7377	2529	2
7388	7390	7381	12963	2
102	103	101	108	2
113	102	104	103	2
104	105	103	106	2
114	100	104	105	2
100	105	101	98	2
112	102	100	101	2
98	99	100	97	2
108	110	102	109	2
106	107	104	125	2
7392	7393	7395	7398	2
7401	7396	7392	7395	2
7396	7395	7397	7403	2
7402	7396	7394	7397	2
7394	7393	7397	7404	2
7400	7392	7394	7393	2
7404	7406	7394	12979	2
7398	7399	7392	6180	2
7403	7405	7396	12907	2
7421	7422	7424	7427	2
7430	7425	7421	7424	2
7425	7424	7426	7432	2
7431	7425	7423	7426	2
7423	7422	7426	7433	2
7429	7423	7421	7422	2
7433	7435	7423	3055	2
7427	7428	7421	7417	2
7432	7434	7425	12993	2
7450	7451	7453	7456	2
7459	7454	7450	7453	2
7454	7453	7455	7461	2
7460	7452	7454	7455	2
7452	7451	7455	7462	2
7458	7452	7450	7451	2
7462	7464	7452	3070	2
7456	7457	7450	7448	2
7461	7463	7454	11229	2
7479	7480	7482	7485	2
7488	7483	7479	7482	2
7483	7484	7482	7490	2
7489	7481	7483	7484	2
7481	7484	7480	7491	2
7487	7481	7479	7480	2
7491	7493	7481	12697	2
7485	7486	7479	7477	2
7490	7492	7483	1293	2
7494	7497	7495	7500	2
7502	7496	7494	7495	2
7496	7499	7495	7506	2
7504	7498	7496	7499	2
7498	7499	7497	7505	2
7503	7498	7494	7497	2
7505	7507	7498	13007	2
7500	7501	7494	3881	2
7506	7508	7496	11411	2
7523	7526	7524	7529	2
7532	7527	7523	7526	2
7527	7526	7528	7534	2
7533	7527	7525	7528	2
7525	7528	7524	7535	2
7531	7525	7523	7524	2
7535	7537	7525	13019	2
7529	7530	7523	7519	2
7534	7536	7527	4692	2
1648	1651	1649	1654	2
1657	1652	1648	1651	2
1652	1653	1651	1659	2
1658	1652	1650	1653	2
1649	1653	1650	1660	2
1656	1648	1650	1649	2
1660	1662	1650	1663	2
1654	1655	1648	1677	2
1659	1661	1652	13845	2
7552	7553	7555	7558	2
7561	7552	7556	7555	2
7556	7557	7555	7563	2
7562	7556	7554	7557	2
7554	7557	7553	7564	2
7560	7554	7552	7553	2
7564	7566	7554	12559	2
7558	7559	7552	7550	2
7563	7565	7556	11619	2
7567	7568	7570	7573	2
7575	7567	7569	7568	2
7569	7568	7572	7579	2
7577	7569	7571	7572	2
7571	7570	7572	7578	2
7576	7567	7571	7570	2
7578	7580	7571	6093	2
7573	7574	7567	3085	2
7579	7581	7569	12487	2
7600	7601	7599	7607	2
7606	7600	7598	7601	2
7598	7597	7601	7608	2
7604	7598	7596	7597	2
7596	7597	7599	7602	2
7605	7596	7600	7599	2
7602	7603	7596	13035	2
7607	7609	7600	7592	2
7608	7610	7598	13049	2
7628	7626	7625	7631	2
7634	7629	7625	7628	2
7629	7630	7628	7636	2
7635	7627	7629	7630	2
7627	7626	7630	7637	2
7633	7625	7627	7626	2
7637	7639	7627	4053	2
7631	7632	7625	7623	2
7636	7638	7629	13061	2
1679	1682	1680	1685	2
1688	1683	1679	1682	2
1683	1684	1682	1690	2
1689	1683	1681	1684	2
1681	1684	1680	1691	2
1687	1681	1679	1680	2
1691	1693	1681	1694	2
1685	1686	1679	1706	2
1690	1692	1683	12797	2
7640	7643	7641	7646	2
7649	7644	7640	7643	2
7644	7645	7643	7651	2
7650	7642	7644	7645	2
7642	7641	7645	7652	2
7648	7642	7640	7641	2
7652	7654	7642	11423	2
7646	7647	7640	3100	2
7651	7653	7644	13075	2
7669	7672	7670	7675	2
7678	7673	7669	7672	2
7673	7674	7672	7680	2
7679	7673	7671	7674	2
7670	7674	7671	7681	2
7677	7669	7671	7670	2
7681	7683	7671	10847	2
7675	7676	7669	7667	2
7680	7682	7673	7926	2
7698	7701	7699	7704	2
7707	7698	7702	7701	2
7702	7703	7701	7709	2
7708	7700	7702	7703	2
7700	7703	7699	7710	2
7706	7698	7700	7699	2
7710	7712	7700	316	2
7704	7705	7698	7696	2
7709	7711	7702	13091	2
1711	1713	1710	1716	2
1718	1712	1710	1711	2
1711	1712	1715	1722	2
1720	1712	1714	1715	2
1714	1715	1713	1721	2
1719	1710	1714	1713	2
1721	1723	1714	12237	2
1716	1717	1710	1737	2
1722	1724	1712	1725	2
7731	7732	7730	7738	2
7737	7729	7731	7732	2
7729	7732	7728	7739	2
7735	7727	7729	7728	2
7727	7728	7730	7733	2
7736	7731	7727	7730	2
7733	7734	7727	7725	2
7738	7740	7731	6383	2
7739	7741	7729	5172	2
7756	7759	7757	7762	2
7764	7756	7758	7757	2
7758	7757	7761	7768	2
7766	7758	7760	7761	2
7760	7761	7759	7767	2
7765	7760	7756	7759	2
7767	7769	7760	4140	2
7762	7763	7756	7752	2
7768	7770	7758	10322	2
7788	7786	7785	7791	2
7793	7787	7785	7786	2
7787	7790	7786	7797	2
7795	7787	7789	7790	2
7789	7790	7788	7796	2
7794	7785	7789	7788	2
7796	7798	7789	13103	2
7791	7792	7785	7781	2
7797	7799	7787	5655	2
1741	1742	1744	1747	2
1749	1743	1741	1742	2
1743	1742	1746	1753	2
1751	1743	1745	1746	2
1745	1744	1746	1752	2
1750	1745	1741	1744	2
1752	1754	1745	13763	2
1747	1748	1741	1768	2
1753	1755	1743	1756	2
7817	7815	7814	7820	2
7822	7814	7815	7816	2
7816	7815	7819	7826	2
7824	7818	7816	7819	2
7818	7819	7817	7825	2
7823	7818	7814	7817	2
7825	7827	7818	12069	2
7820	7821	7814	7810	2
7826	7828	7816	3115	2
7843	7844	7846	7849	2
7851	7843	7845	7844	2
7845	7844	7848	7855	2
7853	7847	7845	7848	2
7847	7846	7848	7854	2
7852	7843	7847	7846	2
7854	7856	7847	13119	2
7849	7850	7843	7841	2
7855	7857	7845	11353	2
7872	7873	7875	7878	2
7880	7872	7874	7873	2
7874	7877	7873	7884	2
7882	7876	7874	7877	2
7876	7877	7875	7883	2
7881	7876	7872	7875	2
7883	7885	7876	13133	2
7878	7879	7872	7870	2
7884	7886	7874	1708	2
7901	7902	7904	7907	2
7909	7901	7903	7902	2
7903	7906	7902	7913	2
7911	7905	7903	7906	2
7905	7906	7904	7912	2
7910	7905	7901	7904	2
7912	7914	7905	13145	2
7907	7908	7901	7899	2
7913	7915	7903	10599	2
7930	7931	7933	7936	2
7939	7930	7934	7933	2
7934	7933	7935	7941	2
7940	7934	7932	7935	2
7932	7931	7935	7942	2
7938	7932	7930	7931	2
7942	7944	7932	7665	2
7936	7937	7930	7928	2
7941	7943	7934	13161	2
1772	1773	1775	1778	2
1780	1772	1774	1773	2
1774	1773	1777	1784	2
1782	1776	1774	1777	2
1775	1776	1777	1783	2
1781	1772	1776	1775	2
1783	1785	1776	6443	2
1778	1779	1772	1799	2
1784	1786	1774	1787	2
7945	7948	7946	7951	2
7953	7945	7947	7946	2
7947	7950	7946	7957	2
7955	7947	7949	7950	2
7949	7948	7950	7956	2
7954	7945	7949	7948	2
7956	7958	7949	9491	2
7951	7952	7945	7839	2
7957	7959	7947	4198	2
7974	7975	7977	7980	2
7982	7974	7976	7975	2
7976	7975	7979	7986	2
7984	7978	7976	7979	2
7978	7977	7979	7985	2
7983	7974	7978	7977	2
7985	7987	7978	3968	2
7980	7981	7974	7970	2
7986	7988	7976	13175	2
8003	8006	8004	8009	2
8012	8007	8003	8006	2
8007	8006	8008	8014	2
8013	8005	8007	8008	2
8005	8008	8004	8015	2
8011	8003	8005	8004	2
8015	8017	8005	12935	2
8009	8010	8003	8001	2
8014	8016	8007	5960	2
8018	8019	8021	8024	2
8027	8022	8018	8021	2
8022	8021	8023	8029	2
8028	8022	8020	8023	2
8020	8019	8023	8030	2
8026	8018	8020	8019	2
8030	8032	8020	13187	2
8024	8025	8018	1739	2
8029	8031	8022	10291	2
8047	8050	8048	8053	2
8055	8049	8047	8048	2
8049	8052	8048	8059	2
8057	8051	8049	8052	2
8051	8050	8052	8058	2
8056	8051	8047	8050	2
8058	8060	8051	12041	2
8053	8054	8047	8043	2
8059	8061	8049	6499	2
8076	8079	8077	8082	2
8084	8078	8076	8077	2
8078	8077	8081	8088	2
8086	8078	8080	8081	2
8080	8081	8079	8087	2
8085	8080	8076	8079	2
8087	8089	8080	3130	2
8082	8083	8076	8072	2
8088	8090	8078	12573	2
1807	1806	1808	1814	2
1812	1803	1807	1806	2
1803	1804	1806	1809	2
1811	1803	1805	1804	2
1805	1804	1808	1815	2
1813	1807	1805	1808	2
1815	1817	1805	1818	2
1814	1816	1807	1832	2
1809	1810	1803	12615	2
8091	8094	8092	8097	2
8099	8093	8091	8092	2
8093	8092	8096	8103	2
8101	8093	8095	8096	2
8095	8096	8094	8102	2
8100	8095	8091	8094	2
8102	8104	8095	3145	2
8097	8098	8091	6572	2
8103	8105	8093	8116	2
8120	8121	8123	8126	2
8128	8122	8120	8121	2
8122	8121	8125	8132	2
8130	8124	8122	8125	2
8124	8125	8123	8131	2
8129	8124	8120	8123	2
8131	8133	8124	13201	2
8126	8127	8120	8118	2
8132	8134	8122	3160	2
8149	8150	8152	8155	2
8158	8149	8153	8152	2
8153	8152	8154	8160	2
8159	8153	8151	8154	2
8151	8154	8150	8161	2
8157	8151	8149	8150	2
8161	8163	8151	12711	2
8155	8156	8149	8147	2
8160	8162	8153	13217	2
8178	8181	8179	8184	2
8187	8182	8178	8181	2
8182	8183	8181	8189	2
8188	8180	8182	8183	2
8180	8183	8179	8190	2
8186	8180	8178	8179	2
8190	8192	8180	13231	2
8184	8185	8178	8176	2
8189	8191	8182	13243	2
8193	8194	8196	8199	2
8202	8193	8197	8196	2
8197	8198	8196	8204	2
8203	8195	8197	8198	2
8195	8198	8194	8205	2
8201	8193	8195	8194	2
8205	8207	8195	13257	2
8199	8200	8193	2434	2
8204	8206	8197	13273	2
8208	8209	8211	8214	2
8216	8208	8210	8209	2
8210	8209	8213	8220	2
8218	8210	8212	8213	2
8212	8211	8213	8219	2
8217	8208	8212	8211	2
8219	8221	8212	4634	2
8214	8215	8208	934	2
8220	8222	8210	1567	2
8239	8238	8242	8249	2
8245	8239	8237	8238	2
8237	8238	8240	8243	2
8246	8237	8241	8240	2
8241	8242	8240	8248	2
8247	8241	8239	8242	2
8248	8250	8241	13287	2
8249	8251	8239	13301	2
8243	8244	8237	8235	2
1850	1855	1851	1848	2
1861	1850	1852	1851	2
1852	1853	1851	1858	2
1862	1852	1854	1853	2
1854	1853	1855	1856	2
1863	1850	1854	1855	2
1856	1857	1854	9959	2
1848	1849	1850	1844	2
1858	1860	1852	1859	2
1864	1865	1867	1870	2
1872	1866	1864	1865	2
1866	1865	1869	1876	2
1874	1866	1868	1869	2
1868	1867	1869	1875	2
1873	1868	1864	1867	2
1875	1877	1868	13285	2
1870	1871	1864	1893	2
1876	1878	1866	1879	2
8252	8253	8255	8258	2
8260	8252	8254	8253	2
8254	8257	8253	8264	2
8262	8254	8256	8257	2
8256	8257	8255	8263	2
8261	8256	8252	8255	2
8263	8265	8256	13313	2
8258	8259	8252	5259	2
8264	8266	8254	5888	2
1897	1900	1896	1907	2
1903	1897	1895	1896	2
1895	1898	1896	1901	2
1904	1899	1895	1898	2
1899	1898	1900	1906	2
1905	1897	1899	1900	2
1906	1908	1899	13831	2
1907	1909	1897	1910	2
1901	1902	1895	1922	2
1926	1929	1927	1932	2
1935	1926	1930	1929	2
1930	1929	1931	1937	2
1936	1930	1928	1931	2
1928	1927	1931	1938	2
1934	1926	1928	1927	2
1938	1940	1928	1941	2
1932	1933	1926	1953	2
1937	1939	1930	13819	2
134	135	133	140	2
145	134	136	135	2
136	137	135	138	2
146	132	136	137	2
132	133	137	130	2
144	134	132	133	2
130	131	132	129	2
140	142	134	141	2
138	139	136	159	2
166	167	165	172	2
177	168	166	167	2
168	167	169	170	2
178	168	164	169	2
164	165	169	162	2
176	166	164	165	2
162	163	164	161	2
172	174	166	173	2
170	171	168	191	2
1958	1961	1959	1964	2
1966	1960	1958	1959	2
1960	1963	1959	1970	2
1968	1960	1962	1963	2
1962	1963	1961	1969	2
1967	1962	1958	1961	2
1969	1971	1962	13805	2
1964	1965	1958	1987	2
1970	1972	1960	1973	2
1991	1994	1990	2001	2
1997	1991	1989	1990	2
1989	1990	1992	1995	2
1998	1989	1993	1992	2
1993	1992	1994	2000	2
1999	1993	1991	1994	2
2000	2002	1993	6936	2
2001	2003	1991	2004	2
1995	1996	1989	2018	2
8267	8270	8268	8273	2
8275	8269	8267	8268	2
8269	8272	8268	8279	2
8277	8269	8271	8272	2
8271	8270	8272	8278	2
8276	8267	8271	8270	2
8278	8280	8271	12179	2
8273	8274	8267	380	2
8279	8281	8269	13329	2
8296	8299	8297	8302	2
8304	8296	8298	8297	2
8298	8301	8297	8308	2
8306	8298	8300	8301	2
8300	8301	8299	8307	2
8305	8300	8296	8299	2
8307	8309	8300	13189	2
8302	8303	8296	8292	2
8308	8310	8298	13341	2
8311	8314	8312	8317	2
8319	8311	8313	8312	2
8313	8312	8316	8323	2
8321	8315	8313	8316	2
8315	8316	8314	8322	2
8320	8311	8315	8314	2
8322	8324	8315	11215	2
8317	8318	8311	7475	2
8323	8325	8313	11733	2
8340	8343	8341	8346	2
8348	8342	8340	8341	2
8342	8341	8345	8352	2
8350	8342	8344	8345	2
8344	8345	8343	8351	2
8349	8344	8340	8343	2
8351	8353	8344	6690	2
8346	8347	8340	8336	2
8352	8354	8342	11719	2
8355	8356	8358	8361	2
8364	8359	8355	8358	2
8359	8360	8358	8366	2
8365	8357	8359	8360	2
8357	8360	8356	8367	2
8363	8357	8355	8356	2
8367	8369	8357	13357	2
8361	8362	8355	221	2
8366	8368	8359	5041	2
8370	8371	8373	8376	2
8379	8370	8374	8373	2
8374	8375	8373	8381	2
8380	8372	8374	8375	2
8372	8375	8371	8382	2
8378	8370	8372	8371	2
8382	8384	8372	13371	2
8376	8377	8370	3175	2
8381	8383	8374	9462	2
8399	8400	8402	8405	2
8407	8401	8399	8400	2
8400	8404	8401	8411	2
8409	8401	8403	8404	2
8403	8404	8402	8410	2
8408	8399	8403	8402	2
8410	8412	8403	13383	2
8405	8406	8399	8397	2
8411	8413	8401	13399	2
8414	8417	8415	8420	2
8422	8416	8414	8415	2
8416	8415	8419	8426	2
8424	8418	8419	8416	2
8417	8419	8418	8425	2
8423	8418	8414	8417	2
8425	8427	8418	3190	2
8420	8421	8414	2220	2
8426	8428	8416	13411	2
2022	2025	2021	2032	2
2028	2020	2022	2021	2
2020	2023	2021	2026	2
2029	2020	2024	2023	2
2024	2023	2025	2031	2
2030	2024	2022	2025	2
2031	2033	2024	11943	2
2032	2034	2022	2035	2
2026	2027	2020	2049	2
8443	8446	8444	8449	2
8451	8445	8443	8444	2
8445	8444	8448	8455	2
8453	8445	8447	8448	2
8447	8446	8448	8454	2
8452	8447	8443	8446	2
8454	8456	8447	9782	2
8449	8450	8443	8441	2
8455	8457	8445	2467	2
2069	2068	2070	2075	2
2078	2069	2067	2068	2
2067	2068	2072	2065	2
2080	2071	2067	2072	2
2071	2070	2072	2073	2
2079	2069	2071	2070	2
2073	2074	2071	3775	2
2075	2077	2069	2076	2
2065	2066	2067	2063	2
2083	2086	2082	2093	2
2089	2081	2083	2082	2
2081	2082	2084	2087	2
2090	2085	2081	2084	2
2085	2086	2084	2092	2
2091	2085	2083	2086	2
2092	2094	2085	11255	2
2093	2095	2083	2096	2
2087	2088	2081	2110	2
196	201	197	194	2
208	196	198	197	2
198	197	199	204	2
209	200	198	199	2
200	201	199	202	2
210	200	196	201	2
202	203	200	223	2
194	195	196	193	2
204	206	198	205	2
8472	8473	8475	8478	2
8481	8476	8472	8475	2
8476	8475	8477	8483	2
8482	8474	8476	8477	2
8474	8477	8473	8484	2
8480	8472	8474	8473	2
8484	8486	8474	12447	2
8478	8479	8472	8468	2
8483	8485	8476	13397	2
8487	8490	8488	8493	2
8495	8487	8489	8488	2
8489	8488	8492	8499	2
8497	8491	8489	8492	2
8491	8492	8490	8498	2
8496	8487	8491	8490	2
8498	8500	8491	12741	2
8493	8494	8487	7302	2
8499	8501	8489	11481	2
8519	8517	8516	8522	2
8524	8516	8517	8518	2
8518	8521	8517	8528	2
8526	8518	8520	8521	2
8520	8521	8519	8527	2
8525	8520	8516	8519	2
8527	8529	8520	8950	2
8522	8523	8516	8512	2
8528	8530	8518	4491	2
8545	8546	8548	8551	2
8553	8547	8545	8546	2
8547	8550	8546	8557	2
8555	8549	8547	8550	2
8549	8548	8550	8556	2
8554	8549	8545	8548	2
8556	8558	8549	3205	2
8551	8552	8545	8541	2
8557	8559	8547	13203	2
2112	2113	2115	2118	2
2120	2114	2112	2113	2
2114	2113	2117	2124	2
2122	2114	2116	2117	2
2116	2115	2117	2123	2
2121	2116	2112	2115	2
2123	2125	2116	11957	2
2118	2119	2112	2141	2
2124	2126	2114	2127	2
8562	8561	8565	8572	2
8568	8560	8562	8561	2
8560	8561	8563	8566	2
8569	8564	8560	8563	2
8564	8563	8565	8571	2
8570	8564	8562	8565	2
8571	8573	8564	13413	2
8572	8574	8562	3220	2
8566	8567	8560	3235	2
8589	8590	8592	8595	2
8597	8589	8591	8590	2
8591	8594	8590	8601	2
8599	8593	8591	8594	2
8593	8594	8592	8600	2
8598	8593	8589	8592	2
8600	8602	8593	7140	2
8595	8596	8589	8587	2
8601	8603	8591	13355	2
8618	8621	8619	8624	2
8627	8618	8622	8621	2
8622	8623	8621	8629	2
8628	8620	8622	8623	2
8620	8623	8619	8630	2
8626	8618	8620	8619	2
8630	8632	8620	13173	2
8624	8625	8618	8614	2
8629	8631	8622	1770	2
8633	8636	8634	8639	2
8641	8635	8633	8634	2
8635	8638	8634	8645	2
8643	8637	8635	8638	2
8637	8636	8638	8644	2
8642	8633	8637	8636	2
8644	8646	8637	13427	2
8639	8640	8633	4329	2
8645	8647	8635	12361	2
8662	8665	8663	8668	2
8670	8664	8662	8663	2
8664	8663	8667	8674	2
8672	8666	8664	8667	2
8666	8667	8665	8673	2
8671	8666	8662	8665	2
8673	8675	8666	5521	2
8668	8669	8662	8660	2
8674	8676	8664	13441	2
8691	8692	8694	8697	2
8700	8695	8691	8694	2
8695	8694	8696	8702	2
8701	8693	8695	8696	2
8693	8692	8696	8703	2
8699	8693	8691	8692	2
8703	8705	8693	11887	2
8697	8698	8691	8687	2
8702	8704	8695	12965	2
8720	8721	8723	8726	2
8729	8720	8724	8723	2
8724	8723	8725	8731	2
8730	8722	8724	8725	2
8725	8721	8722	8732	2
8728	8720	8722	8721	2
8732	8734	8722	9840	2
8726	8727	8720	8716	2
8731	8733	8724	7329	2
8735	8736	8738	8741	2
8744	8739	8735	8738	2
8739	8740	8738	8746	2
8745	8739	8737	8740	2
8737	8740	8736	8747	2
8743	8735	8737	8736	2
8747	8749	8737	11677	2
8741	8742	8735	1431	2
8746	8748	8739	3250	2
8750	8751	8753	8756	2
8759	8750	8754	8753	2
8754	8755	8753	8761	2
8760	8752	8754	8755	2
8752	8755	8751	8762	2
8758	8750	8752	8751	2
8762	8764	8752	11983	2
8756	8757	8750	5828	2
8761	8763	8754	12349	2
8765	8768	8766	8771	2
8774	8765	8769	8768	2
8769	8770	8768	8776	2
8775	8769	8767	8770	2
8767	8770	8766	8777	2
8773	8765	8767	8766	2
8777	8779	8767	10073	2
8771	8772	8765	253	2
8776	8778	8769	12853	2
8794	8795	8797	8800	2
8802	8794	8796	8795	2
8796	8799	8795	8806	2
8804	8798	8796	8799	2
8798	8797	8799	8805	2
8803	8798	8794	8797	2
8805	8807	8798	12893	2
8800	8801	8794	8790	2
8806	8808	8796	13455	2
8823	8826	8824	8829	2
8831	8825	8823	8824	2
8825	8824	8828	8835	2
8833	8827	8825	8828	2
8827	8828	8826	8834	2
8832	8827	8823	8826	2
8834	8836	8827	13469	2
8829	8830	8823	8821	2
8835	8837	8825	13481	2
8854	8853	8857	8864	2
8860	8854	8852	8853	2
8852	8855	8853	8858	2
8861	8852	8856	8855	2
8856	8855	8857	8863	2
8862	8854	8856	8857	2
8863	8865	8856	13117	2
8864	8866	8854	8848	2
8858	8859	8852	12977	2
8881	8882	8884	8887	2
8890	8881	8885	8884	2
8885	8884	8886	8892	2
8891	8885	8883	8886	2
8883	8886	8882	8893	2
8889	8883	8881	8882	2
8893	8895	8883	3265	2
8887	8888	8881	8879	2
8892	8894	8885	10218	2
8896	8897	8899	8902	2
8904	8896	8898	8897	2
8898	8901	8897	8908	2
8906	8900	8898	8901	2
8900	8901	8899	8907	2
8905	8896	8900	8899	2
8907	8909	8900	13063	2
8902	8903	8896	3280	2
8908	8910	8898	3295	2
8925	8926	8928	8931	2
8934	8925	8929	8928	2
8929	8928	8930	8936	2
8935	8927	8929	8930	2
8927	8926	8930	8937	2
8933	8925	8927	8926	2
8937	8939	8927	4518	2
8931	8932	8925	8921	2
8936	8938	8929	6630	2
8954	8957	8955	8960	2
8963	8954	8958	8957	2
8958	8957	8959	8965	2
8964	8958	8956	8959	2
8956	8959	8955	8966	2
8962	8954	8956	8955	2
8966	8968	8956	11801	2
8960	8961	8954	8952	2
8965	8967	8958	11789	2
8969	8970	8972	8975	2
8978	8973	8969	8972	2
8973	8974	8972	8980	2
8979	8971	8974	8973	2
8971	8974	8970	8981	2
8977	8971	8969	8970	2
8981	8983	8971	13495	2
8975	8976	8969	3310	2
8980	8982	8973	13509	2
8999	9001	8998	9004	2
9006	9000	8998	8999	2
9000	8999	9003	9010	2
9008	9000	9002	9003	2
9002	9001	9003	9009	2
9007	8998	9002	9001	2
9009	9011	9002	13385	2
9004	9005	8998	8996	2
9010	9012	9000	13523	2
9013	9014	9016	9019	2
9021	9015	9013	9014	2
9015	9014	9018	9025	2
9023	9017	9015	9018	2
9017	9016	9018	9024	2
9022	9013	9017	9016	2
9024	9026	9017	13539	2
9019	9020	9013	3325	2
9025	9027	9015	4082	2
9042	9045	9043	9048	2
9050	9042	9044	9043	2
9044	9047	9043	9054	2
9052	9046	9044	9047	2
9046	9045	9047	9053	2
9051	9046	9042	9045	2
9053	9055	9046	7358	2
9048	9049	9042	9040	2
9054	9056	9044	10891	2
9057	9060	9058	9063	2
9066	9057	9061	9060	2
9061	9062	9060	9068	2
9067	9061	9059	9062	2
9059	9062	9058	9069	2
9065	9057	9059	9058	2
9069	9071	9059	3340	2
9063	9064	9057	2108	2
9068	9070	9061	13553	2
9072	9073	9075	9078	2
9080	9072	9074	9073	2
9074	9077	9073	9084	2
9082	9074	9076	9077	2
9076	9077	9075	9083	2
9081	9076	9072	9075	2
9083	9085	9076	12587	2
9078	9079	9072	3355	2
9084	9086	9074	3370	2
2143	2144	2146	2149	2
2151	2145	2143	2144	2
2145	2148	2144	2155	2
2153	2145	2147	2148	2
2147	2146	2148	2154	2
2152	2147	2143	2146	2
2154	2156	2147	12195	2
2149	2150	2143	2172	2
2155	2157	2145	2158	2
2174	2177	2175	2180	2
2183	2174	2178	2177	2
2178	2177	2179	2185	2
2184	2176	2178	2179	2
2176	2175	2179	2186	2
2182	2176	2174	2175	2
2186	2188	2176	2189	2
2180	2181	2174	656	2
2185	2187	2178	12405	2
9101	9104	9102	9107	2
9109	9101	9103	9102	2
9103	9102	9106	9113	2
9111	9103	9105	9106	2
9105	9106	9104	9112	2
9110	9101	9105	9104	2
9112	9114	9105	3385	2
9107	9108	9101	9097	2
9113	9115	9103	13511	2
9134	9133	9135	9141	2
9139	9134	9130	9133	2
9130	9131	9133	9136	2
9138	9130	9132	9131	2
9132	9131	9135	9142	2
9140	9132	9134	9135	2
9142	9144	9132	13565	2
9141	9143	9134	13327	2
9136	9137	9130	9128	2
9159	9160	9162	9165	2
9168	9163	9159	9162	2
9163	9162	9164	9170	2
9169	9163	9161	9164	2
9160	9164	9161	9171	2
9167	9159	9161	9160	2
9171	9173	9161	9358	2
9165	9166	9159	9157	2
9170	9172	9163	3400	2
2191	2194	2192	2197	2
2199	2193	2191	2192	2
2193	2196	2192	2203	2
2201	2193	2195	2196	2
2195	2196	2194	2202	2
2200	2195	2191	2194	2
2202	2204	2195	13833	2
2197	2198	2191	2218	2
2203	2205	2193	2206	2
9188	9189	9191	9194	2
9197	9188	9192	9191	2
9192	9191	9193	9199	2
9198	9190	9192	9193	2
9190	9189	9193	9200	2
9196	9188	9190	9189	2
9200	9202	9190	889	2
9194	9195	9188	9186	2
9199	9201	9192	1846	2
9217	9220	9218	9223	2
9226	9221	9217	9220	2
9221	9220	9222	9228	2
9227	9219	9221	9222	2
9219	9218	9222	9229	2
9225	9217	9219	9218	2
9229	9231	9219	13299	2
9223	9224	9217	9215	2
9228	9230	9221	13159	2
9246	9247	9249	9252	2
9255	9250	9246	9249	2
9250	9249	9251	9257	2
9256	9250	9248	9251	2
9248	9251	9247	9258	2
9254	9248	9246	9247	2
9258	9260	9248	3908	2
9252	9253	9246	9244	2
9257	9259	9250	2139	2
9279	9280	9278	9286	2
9284	9279	9275	9278	2
9275	9276	9278	9281	2
9283	9275	9277	9276	2
9277	9276	9280	9287	2
9285	9279	9277	9280	2
9287	9289	9277	13525	2
9286	9288	9279	9271	2
9281	9282	9275	13105	2
9304	9307	9305	9310	2
9313	9304	9308	9307	2
9308	9309	9307	9315	2
9314	9306	9308	9309	2
9306	9309	9305	9316	2
9312	9304	9306	9305	2
9316	9318	9306	13021	2
9310	9311	9304	9302	2
9315	9317	9308	5116	2
9333	9336	9334	9339	2
9341	9333	9335	9334	2
9334	9335	9338	9345	2
9343	9338	9335	9337	2
9337	9336	9338	9344	2
9342	9333	9337	9336	2
9344	9346	9337	11817	2
9339	9340	9333	9331	2
9345	9347	9335	8658	2
9362	9365	9363	9368	2
9370	9362	9364	9363	2
9364	9363	9367	9374	2
9372	9364	9366	9367	2
9366	9367	9365	9373	2
9371	9366	9365	9362	2
9373	9375	9366	12419	2
9368	9369	9362	9360	2
9374	9376	9364	12867	2
9391	9392	9394	9397	2
9400	9391	9395	9394	2
9395	9396	9394	9402	2
9401	9395	9393	9396	2
9393	9392	9396	9403	2
9399	9391	9393	9392	2
9403	9405	9393	7419	2
9397	9398	9391	9389	2
9402	9404	9395	13579	2
9420	9421	9423	9426	2
9429	9420	9424	9423	2
9424	9425	9423	9431	2
9430	9424	9422	9425	2
9422	9421	9425	9432	2
9428	9422	9420	9421	2
9432	9434	9422	12825	2
9426	9427	9420	9418	2
9431	9433	9424	12151	2
2222	2223	2225	2228	2
2230	2222	2224	2223	2
2224	2227	2223	2234	2
2232	2226	2224	2227	2
2226	2227	2225	2233	2
2231	2222	2226	2225	2
2233	2235	2226	13721	2
2228	2229	2222	2249	2
2234	2236	2224	2237	2
9435	9438	9436	9441	2
9444	9439	9435	9438	2
9439	9438	9440	9446	2
9445	9437	9439	9440	2
9437	9436	9440	9447	2
9443	9437	9435	9436	2
9447	9449	9437	3415	2
9441	9442	9435	8514	2
9446	9448	9439	3430	2
9464	9467	9465	9470	2
9473	9464	9468	9467	2
9468	9467	9469	9475	2
9474	9466	9468	9469	2
9466	9469	9465	9476	2
9472	9464	9466	9465	2
9476	9478	9466	9126	2
9470	9471	9464	9460	2
9475	9477	9468	13567	2
9493	9494	9496	9499	2
9501	9495	9493	9494	2
9495	9498	9494	9505	2
9503	9495	9497	9498	2
9497	9498	9496	9504	2
9502	9493	9497	9496	2
9504	9506	9497	13005	2
9499	9500	9493	9489	2
9505	9507	9495	11369	2
9522	9525	9523	9528	2
9531	9526	9522	9525	2
9526	9527	9525	9533	2
9532	9524	9526	9527	2
9524	9527	9523	9534	2
9530	9522	9524	9523	2
9534	9536	9524	10630	2
9528	9529	9522	9520	2
9533	9535	9526	3445	2
9537	9538	9540	9543	2
9545	9537	9539	9538	2
9539	9542	9538	9549	2
9547	9541	9539	9542	2
9541	9540	9542	9548	2
9546	9541	9537	9540	2
9548	9550	9541	12025	2
9543	9544	9537	8174	2
9549	9551	9539	3460	2
2257	2256	2258	2264	2
2263	2257	2255	2258	2
2255	2258	2254	2265	2
2261	2255	2253	2254	2
2253	2254	2256	2259	2
2262	2257	2253	2256	2
2259	2260	2253	4810	2
2264	2266	2257	2280	2
2265	2267	2255	2268	2
9552	9555	9553	9558	2
9560	9554	9552	9553	2
9554	9553	9557	9564	2
9562	9554	9556	9557	2
9556	9555	9557	9563	2
9561	9552	9556	9555	2
9563	9565	9556	13215	2
9558	9559	9552	2251	2
9564	9566	9554	4781	2
9581	9582	9584	9587	2
9589	9583	9581	9582	2
9583	9582	9586	9593	2
9591	9583	9585	9586	2
9585	9584	9586	9592	2
9590	9581	9585	9584	2
9592	9594	9585	3475	2
9587	9588	9581	9577	2
9593	9595	9583	3490	2
9610	9613	9611	9616	2
9618	9612	9610	9611	2
9612	9611	9615	9622	2
9620	9614	9612	9615	2
9614	9615	9613	9621	2
9619	9614	9610	9613	2
9621	9623	9614	6412	2
9616	9617	9610	9608	2
9622	9624	9612	13033	2
9625	9626	9628	9631	2
9634	9625	9629	9628	2
9629	9628	9630	9636	2
9635	9627	9629	9630	2
9627	9626	9630	9637	2
9633	9627	9625	9626	2
9637	9639	9627	12167	2
9631	9632	9625	8877	2
9636	9638	9629	12139	2
9640	9643	9641	9646	2
9649	9640	9644	9643	2
9644	9645	9643	9651	2
9650	9644	9642	9645	2
9642	9645	9641	9652	2
9648	9640	9642	9641	2
9652	9654	9642	3505	2
9646	9647	9640	2282	2
9651	9653	9644	13593	2
9655	9658	9656	9661	2
9663	9657	9655	9656	2
9657	9660	9656	9667	2
9665	9659	9657	9660	2
9659	9660	9658	9666	2
9664	9659	9655	9658	2
9666	9668	9659	13425	2
9661	9662	9655	7271	2
9667	9669	9657	13245	2
9686	9685	9689	9696	2
9692	9686	9684	9685	2
9684	9685	9687	9690	2
9693	9684	9688	9687	2
9688	9687	9689	9695	2
9694	9686	9688	9689	2
9695	9697	9688	998	2
9696	9698	9686	9680	2
9690	9691	9684	8338	2
9713	9714	9716	9719	2
9721	9713	9715	9714	2
9715	9718	9714	9725	2
9723	9715	9717	9718	2
9717	9716	9718	9724	2
9722	9717	9713	9716	2
9724	9726	9717	7521	2
9719	9720	9713	9709	2
9725	9727	9715	5448	2
9742	9743	9745	9748	2
9750	9742	9744	9743	2
9744	9743	9747	9754	2
9752	9746	9744	9747	2
9746	9745	9747	9753	2
9751	9746	9742	9745	2
9753	9755	9746	6528	2
9748	9749	9742	9740	2
9754	9756	9744	12265	2
9757	9758	9760	9763	2
9765	9759	9757	9758	2
9759	9762	9758	9769	2
9767	9761	9759	9762	2
9761	9762	9760	9768	2
9766	9757	9761	9760	2
9768	9770	9761	3520	2
9763	9764	9757	6603	2
9769	9771	9759	3535	2
2300	2301	2305	2298	2
2311	2300	2302	2301	2
2303	2302	2301	2308	2
2312	2302	2304	2303	2
2303	2304	2305	2306	2
2313	2300	2304	2305	2
2306	2307	2304	11969	2
2298	2299	2300	2296	2
2308	2310	2302	2309	2
2316	2315	2319	2326	2
2322	2316	2314	2315	2
2314	2315	2317	2320	2
2323	2314	2318	2317	2
2318	2317	2319	2325	2
2324	2316	2318	2319	2
2325	2327	2318	13229	2
2326	2328	2316	2329	2
2320	2321	2314	2341	2
228	233	229	226	2
240	230	228	229	2
230	231	229	236	2
241	232	230	231	2
232	231	233	234	2
242	228	232	233	2
234	235	232	255	2
226	227	228	225	2
236	238	230	237	2
9786	9789	9787	9792	2
9795	9786	9790	9789	2
9790	9789	9791	9797	2
9796	9788	9790	9791	2
9788	9791	9787	9798	2
9794	9786	9788	9787	2
9798	9800	9788	9738	2
9792	9793	9786	9784	2
9797	9799	9790	12529	2
9815	9816	9818	9821	2
9823	9815	9817	9816	2
9817	9816	9820	9827	2
9825	9819	9817	9820	2
9819	9820	9818	9826	2
9824	9819	9815	9818	2
9826	9828	9819	13483	2
9821	9822	9815	9813	2
9827	9829	9817	1675	2
9844	9845	9847	9850	2
9852	9845	9844	9846	2
9846	9845	9849	9856	2
9854	9849	9848	9846	2
9848	9849	9847	9855	2
9853	9844	9848	9847	2
9855	9857	9848	5757	2
9850	9851	9844	9842	2
9856	9858	9846	13607	2
9873	9876	9874	9879	2
9882	9877	9873	9876	2
9877	9878	9876	9884	2
9883	9877	9875	9878	2
9875	9878	9874	9885	2
9881	9875	9873	9874	2
9885	9887	9875	13621	2
9879	9880	9873	9869	2
9884	9886	9877	11507	2
9889	9888	9891	9894	2
9897	9892	9888	9891	2
9892	9891	9893	9899	2
9898	9890	9892	9893	2
9890	9893	9889	9900	2
9896	9888	9890	9889	2
9900	9902	9890	13635	2
9894	9895	9888	9242	2
9899	9901	9892	12081	2
2345	2346	2348	2351	2
2353	2345	2347	2346	2
2347	2350	2346	2357	2
2355	2349	2347	2350	2
2349	2348	2350	2356	2
2354	2345	2349	2348	2
2356	2358	2349	11703	2
2351	2352	2345	2374	2
2357	2359	2347	2360	2
9917	9918	9920	9923	2
9925	9917	9919	9918	2
9919	9918	9922	9929	2
9927	9921	9919	9922	2
9921	9922	9920	9928	2
9926	9921	9917	9920	2
9928	9930	9921	3550	2
9923	9924	9917	9915	2
9929	9931	9919	11523	2
9932	9935	9933	9938	2
9941	9936	9932	9935	2
9936	9937	9935	9943	2
9942	9934	9936	9937	2
9934	9933	9937	9944	2
9940	9934	9932	9933	2
9944	9946	9934	8233	2
9938	9939	9932	504	2
9943	9945	9936	8850	2
264	263	265	266	2
274	260	264	265	2
260	261	265	258	2
272	262	260	261	2
262	263	261	268	2
273	264	262	263	2
268	270	262	269	2
266	267	264	287	2
258	259	260	257	2
9961	9964	9962	9967	2
9969	9963	9962	9961	2
9966	9962	9963	9973	2
9971	9963	9965	9966	2
9965	9964	9966	9972	2
9970	9961	9965	9964	2
9972	9974	9965	13651	2
9967	9968	9961	9957	2
9973	9975	9963	7754	2
9990	9993	9991	9996	2
9998	9992	9990	9991	2
9992	9991	9995	10002	2
10000	9992	9994	9995	2
9994	9993	9995	10001	2
9999	9990	9994	9993	2
10001	10003	9994	12949	2
9996	9997	9990	9988	2
10002	10004	9992	11605	2
10019	10020	10022	10025	2
10028	10019	10023	10022	2
10023	10024	10022	10030	2
10029	10021	10023	10024	2
10021	10020	10024	10031	2
10027	10021	10019	10020	2
10031	10033	10021	11913	2
10025	10026	10019	10017	2
10030	10032	10023	3565	2
10048	10051	10049	10054	2
10057	10048	10052	10051	2
10052	10051	10053	10059	2
10058	10052	10050	10053	2
10050	10049	10053	10060	2
10056	10050	10048	10049	2
10060	10062	10050	5363	2
10054	10055	10048	10046	2
10059	10061	10052	12377	2
10079	10078	10082	10089	2
10085	10077	10079	10078	2
10077	10080	10078	10083	2
10086	10081	10077	10080	2
10081	10080	10082	10088	2
10087	10079	10081	10082	2
10088	10090	10081	13663	2
10089	10091	10079	10075	2
10083	10084	10077	6763	2
10106	10107	10109	10112	2
10114	10108	10106	10107	2
10108	10107	10111	10118	2
10116	10108	10110	10111	2
10110	10111	10109	10117	2
10115	10110	10106	10109	2
10117	10119	10110	13595	2
10112	10113	10106	10104	2
10118	10120	10108	5232	2
10139	10140	10138	10146	2
10145	10139	10137	10140	2
10137	10136	10140	10147	2
10143	10135	10137	10136	2
10135	10136	10138	10141	2
10144	10139	10135	10138	2
10141	10142	10135	12307	2
10146	10148	10139	10131	2
10147	10149	10137	13679	2
10164	10167	10165	10170	2
10172	10166	10164	10165	2
10166	10165	10169	10176	2
10174	10166	10168	10169	2
10168	10169	10167	10175	2
10173	10164	10168	10167	2
10175	10177	10168	9273	2
10170	10171	10164	10162	2
10176	10178	10166	8395	2
10193	10196	10194	10199	2
10201	10195	10193	10194	2
10195	10194	10198	10205	2
10203	10195	10197	10198	2
10197	10198	10196	10204	2
10202	10193	10197	10196	2
10204	10206	10197	9155	2
10199	10200	10193	10189	2
10205	10207	10195	9387	2
10222	10225	10223	10228	2
10230	10222	10224	10223	2
10224	10223	10227	10234	2
10232	10224	10226	10227	2
10226	10227	10225	10233	2
10231	10222	10226	10225	2
10233	10235	10226	9711	2
10228	10229	10222	10220	2
10234	10236	10224	6354	2
10251	10252	10254	10257	2
10260	10255	10251	10254	2
10255	10254	10256	10262	2
10261	10253	10255	10256	2
10253	10252	10256	10263	2
10259	10251	10253	10252	2
10263	10265	10253	11339	2
10257	10258	10251	10249	2
10262	10264	10255	13047	2
10266	10269	10267	10272	2
10275	10270	10266	10269	2
10270	10269	10271	10277	2
10276	10271	10270	10268	2
10268	10267	10271	10278	2
10274	10266	10267	10268	2
10278	10280	10268	6807	2
10272	10273	10266	8923	2
10277	10279	10270	11773	2
10295	10298	10296	10301	2
10303	10297	10295	10296	2
10297	10300	10296	10307	2
10305	10297	10299	10300	2
10299	10300	10298	10306	2
10304	10295	10299	10298	2
10306	10308	10299	13315	2
10301	10302	10295	10293	2
10307	10309	10297	12389	2
10324	10325	10327	10330	2
10332	10324	10326	10325	2
10326	10325	10329	10336	2
10334	10326	10328	10329	2
10328	10327	10329	10335	2
10333	10328	10324	10327	2
10335	10337	10328	4881	2
10330	10331	10324	10320	2
10336	10338	10326	13649	2
10353	10354	10356	10359	2
10361	10353	10355	10354	2
10355	10354	10358	10365	2
10363	10355	10357	10358	2
10357	10358	10356	10364	2
10362	10357	10353	10356	2
10364	10366	10357	12879	2
10359	10360	10353	10349	2
10365	10367	10355	10951	2
2376	2377	2379	2382	2
2384	2378	2376	2377	2
2378	2381	2377	2388	2
2386	2378	2380	2381	2
2380	2381	2379	2387	2
2385	2380	2376	2379	2
2387	2389	2380	3805	2
2382	2383	2376	2405	2
2388	2390	2378	2391	2
10368	10369	10371	10374	2
10376	10368	10370	10369	2
10370	10373	10369	10380	2
10378	10372	10370	10373	2
10372	10373	10371	10379	2
10377	10372	10368	10371	2
10379	10381	10372	12783	2
10374	10375	10368	9811	2
10380	10382	10370	4229	2
10383	10384	10386	10389	2
10391	10383	10385	10384	2
10385	10384	10388	10395	2
10393	10387	10385	10388	2
10387	10386	10388	10394	2
10392	10383	10387	10386	2
10394	10396	10387	1801	2
10389	10390	10383	6151	2
10395	10397	10385	12055	2
10398	10399	10401	10404	2
10407	10398	10402	10401	2
10402	10401	10403	10409	2
10408	10402	10400	10403	2
10400	10403	10399	10410	2
10406	10400	10398	10399	2
10410	10412	10400	11395	2
10404	10405	10398	1494	2
10409	10411	10402	1027	2
10427	10428	10430	10433	2
10436	10427	10431	10430	2
10431	10432	10430	10438	2
10437	10431	10429	10432	2
10429	10432	10428	10439	2
10435	10427	10429	10428	2
10439	10441	10429	11297	2
10433	10434	10427	10423	2
10438	10440	10431	9099	2
10442	10445	10443	10448	2
10451	10446	10442	10445	2
10446	10447	10445	10453	2
10452	10446	10444	10447	2
10444	10443	10447	10454	2
10450	10444	10442	10443	2
10454	10456	10444	1244	2
10448	10449	10442	596	2
10453	10455	10446	5014	2
10475	10476	10474	10482	2
10481	10475	10473	10476	2
10473	10472	10476	10483	2
10479	10473	10471	10472	2
10471	10474	10472	10477	2
10480	10471	10475	10474	2
10477	10478	10471	13439	2
10482	10484	10475	10469	2
10483	10485	10473	5085	2
10486	10487	10489	10492	2
10495	10490	10486	10489	2
10490	10491	10489	10497	2
10496	10488	10490	10491	2
10488	10491	10487	10498	2
10494	10486	10488	10487	2
10498	10500	10488	13691	2
10492	10493	10486	5390	2
10497	10499	10490	3580	2
10515	10516	10518	10521	2
10523	10515	10517	10516	2
10517	10520	10516	10527	2
10525	10519	10517	10520	2
10519	10520	10518	10526	2
10524	10519	10515	10518	2
10526	10528	10519	12517	2
10521	10522	10515	10513	2
10527	10529	10517	12921	2
10530	10533	10531	10536	2
10538	10530	10532	10531	2
10532	10535	10531	10542	2
10540	10532	10534	10535	2
10534	10535	10533	10541	2
10539	10530	10534	10533	2
10541	10543	10534	13665	2
10536	10537	10530	689	2
10542	10544	10532	13609	2
2407	2410	2408	2413	2
2415	2409	2407	2408	2
2409	2412	2408	2419	2
2417	2409	2411	2412	2
2411	2410	2412	2418	2
2416	2407	2411	2410	2
2418	2420	2411	13677	2
2413	2414	2407	2436	2
2419	2421	2409	2422	2
10545	10548	10546	10551	2
10553	10547	10545	10546	2
10547	10550	10546	10557	2
10555	10549	10547	10550	2
10549	10548	10550	10556	2
10554	10549	10545	10548	2
10556	10558	10549	12111	2
10551	10552	10545	7694	2
10557	10559	10547	11901	2
2438	2441	2439	2444	2
2446	2438	2440	2439	2
2440	2439	2443	2450	2
2448	2442	2440	2443	2
2442	2441	2443	2449	2
2447	2442	2438	2441	2
2449	2451	2442	5611	2
2444	2445	2438	2465	2
2450	2452	2440	2453	2
10574	10577	10575	10580	2
10582	10576	10574	10575	2
10576	10579	10575	10586	2
10584	10576	10578	10579	2
10578	10579	10577	10585	2
10583	10578	10574	10577	2
10585	10587	10578	11759	2
10580	10581	10574	10570	2
10586	10588	10576	9213	2
2469	2470	2472	2475	2
2477	2471	2469	2470	2
2471	2474	2470	2481	2
2479	2473	2471	2474	2
2473	2472	2474	2480	2
2478	2473	2469	2472	2
2480	2482	2473	13147	2
2475	2476	2469	2498	2
2481	2483	2471	2484	2
10605	10608	10604	10615	2
10611	10605	10603	10604	2
10603	10606	10604	10609	2
10612	10607	10603	10606	2
10607	10608	10606	10614	2
10613	10607	10605	10608	2
10614	10616	10607	13705	2
10615	10617	10605	13719	2
10609	10610	10603	10601	2
10632	10635	10633	10638	2
10641	10632	10636	10635	2
10636	10635	10637	10643	2
10642	10634	10636	10637	2
10634	10633	10637	10644	2
10640	10634	10632	10633	2
10644	10646	10634	13551	2
10638	10639	10632	10628	2
10643	10645	10636	3595	2
10661	10662	10664	10667	2
10669	10661	10663	10662	2
10663	10662	10666	10673	2
10671	10665	10663	10666	2
10665	10666	10664	10672	2
10670	10665	10661	10664	2
10672	10674	10665	5419	2
10667	10668	10661	10659	2
10673	10675	10663	13733	2
2502	2505	2501	2512	2
2508	2502	2500	2501	2
2500	2501	2503	2506	2
2509	2504	2500	2503	2
2504	2503	2505	2511	2
2510	2502	2504	2505	2
2511	2513	2504	12809	2
2512	2514	2502	2515	2
2506	2507	2500	2527	2
2531	2534	2532	2537	2
2539	2531	2533	2532	2
2533	2536	2532	2543	2
2541	2533	2535	2536	2
2535	2536	2534	2542	2
2540	2535	2531	2534	2
2542	2544	2535	12755	2
2537	2538	2531	63	2
2543	2545	2533	2546	2
10690	10691	10693	10696	2
10698	10690	10692	10691	2
10692	10695	10691	10702	2
10700	10694	10692	10695	2
10694	10693	10695	10701	2
10699	10694	10690	10693	2
10701	10703	10694	12837	2
10696	10697	10690	10686	2
10702	10704	10692	13581	2
10719	10722	10720	10725	2
10728	10723	10719	10722	2
10723	10722	10724	10730	2
10729	10723	10721	10724	2
10721	10720	10724	10731	2
10727	10719	10721	10720	2
10731	10733	10721	12627	2
10725	10726	10719	10715	2
10730	10732	10723	13077	2
10738	10737	10739	10745	2
10744	10736	10738	10739	2
10736	10739	10735	10746	2
10742	10736	10735	10734	2
10734	10735	10737	10740	2
10743	10734	10738	10737	2
10740	10741	10734	3610	2
10745	10747	10738	1924	2
10746	10748	10736	2047	2
10749	10750	10752	10755	2
10758	10753	10749	10752	2
10753	10752	10754	10760	2
10759	10751	10753	10754	2
10751	10754	10750	10761	2
10757	10751	10749	10750	2
10761	10763	10751	3997	2
10755	10756	10749	3835	2
10760	10762	10753	13259	2
10778	10781	10779	10784	2
10787	10782	10778	10781	2
10782	10783	10781	10789	2
10788	10782	10780	10783	2
10780	10779	10783	10790	2
10786	10780	10778	10779	2
10790	10792	10780	2294	2
10784	10785	10778	10776	2
10789	10791	10782	3625	2
10793	10796	10794	10799	2
10801	10795	10793	10794	2
10795	10794	10798	10805	2
10803	10797	10795	10798	2
10797	10796	10798	10804	2
10802	10793	10797	10796	2
10804	10806	10797	13089	2
10799	10800	10793	10247	2
10805	10807	10795	3640	2
10822	10823	10825	10828	2
10830	10822	10824	10823	2
10824	10823	10827	10834	2
10832	10826	10824	10827	2
10826	10825	10827	10833	2
10831	10822	10826	10825	2
10833	10835	10826	9416	2
10828	10829	10822	10818	2
10834	10836	10824	13537	2
10851	10852	10854	10857	2
10860	10851	10855	10854	2
10855	10856	10854	10862	2
10861	10855	10853	10856	2
10853	10856	10852	10863	2
10859	10851	10853	10852	2
10863	10865	10853	12671	2
10857	10858	10851	10849	2
10862	10864	10855	13271	2
10866	10867	10869	10872	2
10875	10870	10866	10869	2
10870	10869	10871	10877	2
10876	10870	10868	10871	2
10868	10871	10867	10878	2
10874	10868	10866	10867	2
10878	10880	10868	10657	2
10872	10873	10866	5550	2
10877	10879	10870	13735	2
10895	10896	10898	10901	2
10903	10895	10897	10896	2
10897	10900	10896	10907	2
10905	10899	10897	10900	2
10899	10898	10900	10906	2
10904	10895	10899	10898	2
10906	10908	10899	10922	2
10901	10902	10895	10893	2
10907	10909	10897	9038	2
10924	10927	10925	10930	2
10932	10924	10926	10925	2
10926	10925	10929	10936	2
10934	10928	10926	10929	2
10928	10929	10927	10935	2
10933	10924	10928	10927	2
10935	10937	10928	13749	2
10930	10931	10924	10920	2
10936	10938	10926	13497	2
10953	10956	10954	10959	2
10961	10955	10953	10954	2
10955	10958	10954	10965	2
10963	10955	10957	10958	2
10957	10958	10956	10964	2
10962	10957	10953	10956	2
10964	10966	10957	3655	2
10959	10960	10953	10949	2
10965	10967	10955	7198	2
10968	10971	10969	10974	2
10977	10968	10972	10971	2
10972	10971	10973	10979	2
10978	10970	10972	10973	2
10970	10973	10969	10980	2
10976	10968	10970	10969	2
10980	10982	10970	3670	2
10974	10975	10968	7621	2
10979	10981	10972	12473	2
10983	10984	10986	10989	2
10992	10987	10983	10986	2
10987	10988	10986	10994	2
10993	10985	10987	10988	2
10985	10984	10988	10995	2
10991	10985	10983	10984	2
10995	10997	10985	4404	2
10989	10990	10983	3685	2
10994	10996	10987	3700	2
10998	11001	10999	11004	2
11007	11002	10998	11001	2
11002	11001	11003	11009	2
11008	11002	11000	11003	2
11000	10999	11003	11010	2
11006	11000	10999	10998	2
11010	11012	11000	11633	2
11004	11005	10998	3715	2
11009	11011	11002	6209	2
11027	11030	11028	11033	2
11035	11027	11029	11028	2
11032	11028	11029	11039	2
11037	11029	11031	11032	2
11031	11030	11032	11038	2
11036	11027	11031	11030	2
11038	11040	11031	13623	2
11033	11034	11027	11025	2
11039	11041	11029	13693	2
11042	11043	11045	11048	2
11051	11042	11046	11045	2
11046	11047	11045	11053	2
11052	11044	11046	11047	2
11044	11043	11047	11054	2
11050	11044	11042	11043	2
11054	11056	11044	11829	2
11048	11049	11042	10572	2
11053	11055	11046	12125	2
2548	2549	2551	2554	2
2557	2552	2548	2551	2
2552	2551	2553	2559	2
2558	2550	2552	2553	2
2550	2553	2549	2560	2
2556	2550	2548	2549	2
2560	2562	2550	2563	2
2554	2555	2548	2575	2
2559	2561	2552	11099	2
11057	11058	11060	11063	2
11065	11057	11059	11058	2
11059	11062	11058	11069	2
11067	11061	11059	11062	2
11061	11062	11060	11068	2
11066	11057	11061	11060	2
11068	11070	11061	4939	2
11063	11064	11057	10044	2
11069	11071	11059	10425	2
11072	11073	11075	11078	2
11080	11074	11072	11073	2
11074	11077	11073	11084	2
11082	11076	11074	11077	2
11076	11077	11075	11083	2
11081	11076	11072	11075	2
11083	11085	11076	411	2
11078	11079	11072	8294	2
11084	11086	11074	13747	2
11101	11102	11104	11107	2
11109	11103	11101	11102	2
11103	11102	11106	11113	2
11111	11103	11105	11106	2
11105	11104	11106	11112	2
11110	11101	11105	11104	2
11112	11114	11105	13761	2
11107	11108	11101	11097	2
11113	11115	11103	4360	2
11130	11131	11133	11136	2
11138	11130	11132	11131	2
11132	11131	11135	11142	2
11140	11134	11132	11135	2
11134	11133	11135	11141	2
11139	11130	11134	11133	2
11141	11143	11134	11593	2
11136	11137	11130	11126	2
11142	11144	11132	11283	2
2579	2582	2580	2585	2
2587	2581	2579	2580	2
2581	2580	2584	2591	2
2589	2583	2581	2584	2
2583	2584	2582	2590	2
2588	2579	2583	2582	2
2590	2592	2583	8585	2
2585	2586	2579	2608	2
2591	2593	2581	2594	2
11145	11146	11148	11151	2
11153	11145	11147	11146	2
11147	11150	11146	11157	2
11155	11149	11147	11150	2
11149	11150	11148	11156	2
11154	11145	11149	11148	2
11156	11158	11149	3730	2
11151	11152	11145	6967	2
11157	11159	11147	3745	2
11160	11163	11161	11166	2
11169	11164	11160	11163	2
11164	11165	11163	11171	2
11170	11162	11164	11165	2
11162	11165	11161	11172	2
11168	11160	11162	11161	2
11172	11174	11162	7084	2
11166	11167	11160	127	2
11171	11173	11164	3760	2


[ moleculetype ]
; Name	nrexcl
MOL2	3

[ atoms ]
;nr	type	resnr	residue	atom	cgnr	charge	mass
1	OR	1	TCq1	O1	1	-0.65	15.9994
2	C=O	1	TCq1	C1	1	0.6338	12.011
3	O=C	1	TCq1	O2	1	-0.57	15.9994
4	CB	1	TCq1	C2	1	0.0862	12.011
5	CB	1	TCq1	C3	1	-0.15	12.011
6	CB	1	TCq1	C4	1	-0.179	12.011
7	CB	1	TCq1	C5	1	-0.15	12.011
8	CB	1	TCq1	C6	1	0.0862	12.011
9	CB	1	TCq1	C7	1	-0.15	12.011
10	C=O	1	TCq1	C8	1	0.5438	12.011
11	O=C	1	TCq1	O4	1	-0.57	15.9994
12	CO2M	1	TCq1	C9	1	0.979	12.011
13	O2CM	1	TCq1	O5	1	-0.9	15.9994
14	O2CM	1	TCq1	O6	1	-0.9	15.9994
15	HOCO	1	TCq1	H1	1	0.5	1.0079
16	HCMM	1	TCq1	H2	1	0.15	1.0079
17	HCMM	1	TCq1	H3	1	0.15	1.0079
18	HCMM	1	TCq1	H4	1	0.15	1.0079
19	CB	2	MPD2	C	1	-0.15	12.011
20	CB	2	MPD2	C1	1	0.117	12.011
21	CB	2	MPD2	C2	1	-0.15	12.011
22	CB	2	MPD2	C3	1	0.117	12.011
23	CB	2	MPD2	C4	1	-0.15	12.011
24	CB	2	MPD2	C5	1	-0.15	12.011
25	HCMM	2	MPD2	H	1	0.15	1.0079
26	HCMM	2	MPD2	H1	1	0.15	1.0079
27	HCMM	2	MPD2	H2	1	0.15	1.0079
28	HCMM	2	MPD2	H3	1	0.15	1.0079
29	NC=O	2	MPD2	N	1	-0.547	14.0067
30	HNCO	2	MPD2	H5	1	0.37	1.0079
31	NC=O	2	MPD2	N1	1	-0.547	14.0067
32	HNCO	2	MPD2	H7	1	0.37	1.0079
33	CB	3	TMC2	C1	1	0.0862	12.011
34	CB	3	TMC2	C2	1	-0.15	12.011
35	CB	3	TMC2	C3	1	0.0862	12.011
36	CB	3	TMC2	C4	1	-0.15	12.011
37	CB	3	TMC2	C5	1	0.0862	12.011
38	CB	3	TMC2	C6	1	-0.15	12.011
39	C=O	3	TMC2	C	1	0.5438	12.011
40	O=C	3	TMC2	O	1	-0.57	15.9994
41	HCMM	3	TMC2	H	1	0.15	1.0079
42	HCMM	3	TMC2	H1	1	0.15	1.0079
43	HCMM	3	TMC2	H2	1	0.15	1.0079
44	C=O	3	TMC2	C7	1	0.5438	12.011
45	C=O	3	TMC2	C8	1	0.6338	12.011
46	O=C	3	TMC2	O1	1	-0.57	15.9994
47	O=C	3	TMC2	O2	1	-0.57	15.9994
48	OR	3	TMC2	O5	1	-0.65	15.9994
49	HOCO	3	TMC2	H5	1	0.5	1.0079
50	CB	4	TMC2	C1	1	0.0862	12.011
51	CB	4	TMC2	C2	1	-0.15	12.011
52	CB	4	TMC2	C3	1	0.0862	12.011
53	CB	4	TMC2	C4	1	-0.15	12.011
54	CB	4	TMC2	C5	1	0.0862	12.011
55	CB	4	TMC2	C6	1	-0.15	12.011
56	C=O	4	TMC2	C	1	0.5438	12.011
57	O=C	4	TMC2	O	1	-0.57	15.9994
58	HCMM	4	TMC2	H	1	0.15	1.0079
59	HCMM	4	TMC2	H1	1	0.15	1.0079
60	HCMM	4	TMC2	H2	1	0.15	1.0079
61	C=O	4	TMC2	C7	1	0.5438	12.011
62	C=O	4	TMC2	C8	1	0.6338	12.011
63	O=C	4	TMC2	O1	1	-0.57	15.9994
64	O=C	4	TMC2	O2	1	-0.57	15.9994
65	OR	4	TMC2	O5	1	-0.65	15.9994
66	HOCO	4	TMC2	H5	1	0.5	1.0079
67	CB	5	MPD2	C	1	-0.15	12.011
68	CB	5	MPD2	C1	1	0.117	12.011
69	CB	5	MPD2	C2	1	-0.15	12.011
70	CB	5	MPD2	C3	1	0.117	12.011
71	CB	5	MPD2	C4	1	-0.15	12.011
72	CB	5	MPD2	C5	1	-0.15	12.011
73	HCMM	5	MPD2	H	1	0.15	1.0079
74	HCMM	5	MPD2	H1	1	0.15	1.0079
75	HCMM	5	MPD2	H2	1	0.15	1.0079
76	HCMM	5	MPD2	H3	1	0.15	1.0079
77	NC=O	5	MPD2	N	1	-0.547	14.0067
78	HNCO	5	MPD2	H5	1	0.37	1.0079
79	NC=O	5	MPD2	N1	1	-0.547	14.0067
80	HNCO	5	MPD2	H7	1	0.37	1.0079
81	CB	6	MPD1	C	1	-0.15	12.011
82	CB	6	MPD1	C1	1	0.1	12.011
83	CB	6	MPD1	C2	1	-0.15	12.011
84	CB	6	MPD1	C3	1	0.117	12.011
85	CB	6	MPD1	C4	1	-0.15	12.011
86	CB	6	MPD1	C5	1	-0.15	12.011
87	HCMM	6	MPD1	H	1	0.15	1.0079
88	HCMM	6	MPD1	H1	1	0.15	1.0079
89	HCMM	6	MPD1	H2	1	0.15	1.0079
90	HCMM	6	MPD1	H3	1	0.15	1.0079
91	NC=O	6	MPD1	N	1	-0.547	14.0067
92	HNCO	6	MPD1	H5	1	0.37	1.0079
93	NC=C	6	MPD1	N1	1	-0.9	14.0067
94	HNCO	6	MPD1	H6	1	0.4	1.0079
95	HNCO	6	MPD1	H7	1	0.4	1.0079
96	CB	7	MPD2	C	1	-0.15	12.011
97	CB	7	MPD2	C1	1	0.117	12.011
98	CB	7	MPD2	C2	1	-0.15	12.011
99	CB	7	MPD2	C3	1	0.117	12.011
100	CB	7	MPD2	C4	1	-0.15	12.011
101	CB	7	MPD2	C5	1	-0.15	12.011
102	HCMM	7	MPD2	H	1	0.15	1.0079
103	HCMM	7	MPD2	H1	1	0.15	1.0079
104	HCMM	7	MPD2	H2	1	0.15	1.0079
105	HCMM	7	MPD2	H3	1	0.15	1.0079
106	NC=O	7	MPD2	N	1	-0.547	14.0067
107	HNCO	7	MPD2	H5	1	0.37	1.0079
108	NC=O	7	MPD2	N1	1	-0.547	14.0067
109	HNCO	7	MPD2	H7	1	0.37	1.0079
110	CB	8	TMC3	C1	1	0.0862	12.011
111	CB	8	TMC3	C2	1	-0.15	12.011
112	CB	8	TMC3	C3	1	0.0862	12.011
113	CB	8	TMC3	C4	1	-0.15	12.011
114	CB	8	TMC3	C5	1	0.0862	12.011
115	CB	8	TMC3	C6	1	-0.15	12.011
116	C=O	8	TMC3	C	1	0.5438	12.011
117	O=C	8	TMC3	O	1	-0.57	15.9994
118	HCMM	8	TMC3	H	1	0.15	1.0079
119	HCMM	8	TMC3	H1	1	0.15	1.0079
120	HCMM	8	TMC3	H2	1	0.15	1.0079
121	C=O	8	TMC3	C7	1	0.5438	12.011
122	C=O	8	TMC3	C8	1	0.5438	12.011
123	O=C	8	TMC3	O1	1	-0.57	15.9994
124	O=C	8	TMC3	O2	1	-0.57	15.9994
125	CB	9	TMC3	C1	1	0.0862	12.011
126	CB	9	TMC3	C2	1	-0.15	12.011
127	CB	9	TMC3	C3	1	0.0862	12.011
128	CB	9	TMC3	C4	1	-0.15	12.011
129	CB	9	TMC3	C5	1	0.0862	12.011
130	CB	9	TMC3	C6	1	-0.15	12.011
131	C=O	9	TMC3	C	1	0.5438	12.011
132	O=C	9	TMC3	O	1	-0.57	15.9994
133	HCMM	9	TMC3	H	1	0.15	1.0079
134	HCMM	9	TMC3	H1	1	0.15	1.0079
135	HCMM	9	TMC3	H2	1	0.15	1.0079
136	C=O	9	TMC3	C7	1	0.5438	12.011
137	C=O	9	TMC3	C8	1	0.5438	12.011
138	O=C	9	TMC3	O1	1	-0.57	15.9994
139	O=C	9	TMC3	O2	1	-0.57	15.9994
140	CB	10	MPD2	C	1	-0.15	12.011
141	CB	10	MPD2	C1	1	0.117	12.011
142	CB	10	MPD2	C2	1	-0.15	12.011
143	CB	10	MPD2	C3	1	0.117	12.011
144	CB	10	MPD2	C4	1	-0.15	12.011
145	CB	10	MPD2	C5	1	-0.15	12.011
146	HCMM	10	MPD2	H	1	0.15	1.0079
147	HCMM	10	MPD2	H1	1	0.15	1.0079
148	HCMM	10	MPD2	H2	1	0.15	1.0079
149	HCMM	10	MPD2	H3	1	0.15	1.0079
150	NC=O	10	MPD2	N	1	-0.547	14.0067
151	HNCO	10	MPD2	H5	1	0.37	1.0079
152	NC=O	10	MPD2	N1	1	-0.547	14.0067
153	HNCO	10	MPD2	H7	1	0.37	1.0079
154	CB	11	MPD2	C	1	-0.15	12.011
155	CB	11	MPD2	C1	1	0.117	12.011
156	CB	11	MPD2	C2	1	-0.15	12.011
157	CB	11	MPD2	C3	1	0.117	12.011
158	CB	11	MPD2	C4	1	-0.15	12.011
159	CB	11	MPD2	C5	1	-0.15	12.011
160	HCMM	11	MPD2	H	1	0.15	1.0079
161	HCMM	11	MPD2	H1	1	0.15	1.0079
162	HCMM	11	MPD2	H2	1	0.15	1.0079
163	HCMM	11	MPD2	H3	1	0.15	1.0079
164	NC=O	11	MPD2	N	1	-0.547	14.0067
165	HNCO	11	MPD2	H5	1	0.37	1.0079
166	NC=O	11	MPD2	N1	1	-0.547	14.0067
167	HNCO	11	MPD2	H7	1	0.37	1.0079

[ bonds ]
141	152	1
152	153	1
152	121	1
143	150	1
150	151	1
150	137	1
141	142	1
140	141	1
142	143	1
143	144	1
142	146	1
140	145	1
140	148	1
144	145	1
144	147	1
145	149	1
70	77	1
77	78	1
56	77	1
68	79	1
79	80	1
79	122	1
69	70	1
70	71	1
68	69	1
67	68	1
69	73	1
71	72	1
71	74	1
67	72	1
67	75	1
72	76	1
20	31	1
31	32	1
39	31	1
22	29	1
29	30	1
10	29	1
20	21	1
19	20	1
21	22	1
22	23	1
21	25	1
19	24	1
19	27	1
23	24	1
23	26	1
24	28	1
155	166	1
166	167	1
44	166	1
157	164	1
164	165	1
61	164	1
155	156	1
154	155	1
156	157	1
157	158	1
156	160	1
154	159	1
154	162	1
158	159	1
158	161	1
159	163	1
97	108	1
108	109	1
108	136	1
99	106	1
106	107	1
106	116	1
97	98	1
96	97	1
98	99	1
99	100	1
98	102	1
96	101	1
96	104	1
100	101	1
100	103	1
101	105	1
82	93	1
93	94	1
93	95	1
84	91	1
91	92	1
91	131	1
82	83	1
81	82	1
83	84	1
84	85	1
83	87	1
81	86	1
81	89	1
85	86	1
85	88	1
86	90	1
50	51	1
50	53	1
50	56	1
51	52	1
51	58	1
52	55	1
52	62	1
54	55	1
55	60	1
53	54	1
54	61	1
53	59	1
61	63	1
56	57	1
62	64	1
62	65	1
65	66	1
34	35	1
35	38	1
35	45	1
33	34	1
34	41	1
33	36	1
33	39	1
36	37	1
36	42	1
37	38	1
37	44	1
38	43	1
44	46	1
45	47	1
45	48	1
39	40	1
48	49	1
125	128	1
125	126	1
125	131	1
128	129	1
128	134	1
129	130	1
129	136	1
127	130	1
130	135	1
126	127	1
127	137	1
126	133	1
137	139	1
131	132	1
136	138	1
110	111	1
110	113	1
110	116	1
111	112	1
111	118	1
112	115	1
112	122	1
114	115	1
115	120	1
113	114	1
114	121	1
113	119	1
121	123	1
116	117	1
122	124	1
9	4	1
4	5	1
4	2	1
8	9	1
9	18	1
8	7	1
8	10	1
7	6	1
7	17	1
6	5	1
6	12	1
5	16	1
12	13	1
12	14	1
2	3	1
2	1	1
10	11	1
1	15	1

[ angles ]
142	141	152	1
140	141	152	1
152	121	114	1
152	121	123	1
142	143	150	1
144	143	150	1
150	137	127	1
150	137	139	1
141	152	153	1
141	152	121	1
141	142	143	1
141	142	146	1
141	140	145	1
141	140	148	1
143	150	151	1
143	150	137	1
143	142	146	1
143	144	145	1
143	144	147	1
140	141	142	1
142	143	144	1
140	145	144	1
140	145	149	1
144	145	149	1
145	140	148	1
145	144	147	1
153	152	121	1
151	150	137	1
69	70	77	1
71	70	77	1
50	56	77	1
57	56	77	1
69	68	79	1
67	68	79	1
79	122	112	1
79	122	124	1
70	77	78	1
56	77	70	1
68	69	70	1
70	69	73	1
70	71	72	1
70	71	74	1
68	79	80	1
68	79	122	1
68	69	73	1
68	67	72	1
68	67	75	1
69	70	71	1
67	68	69	1
67	72	71	1
71	72	76	1
67	72	76	1
72	71	74	1
72	67	75	1
56	77	78	1
80	79	122	1
21	20	31	1
19	20	31	1
33	39	31	1
40	39	31	1
21	22	29	1
23	22	29	1
8	10	29	1
11	10	29	1
20	31	32	1
39	31	20	1
20	21	22	1
20	21	25	1
20	19	24	1
20	19	27	1
22	29	30	1
10	29	22	1
22	21	25	1
22	23	24	1
22	23	26	1
19	20	21	1
21	22	23	1
19	24	23	1
19	24	28	1
23	24	28	1
24	19	27	1
24	23	26	1
39	31	32	1
10	29	30	1
156	155	166	1
154	155	166	1
37	44	166	1
46	44	166	1
156	157	164	1
158	157	164	1
54	61	164	1
63	61	164	1
155	166	167	1
44	166	155	1
155	156	157	1
155	156	160	1
155	154	159	1
155	154	162	1
157	164	165	1
61	164	157	1
157	156	160	1
157	158	159	1
157	158	161	1
154	155	156	1
156	157	158	1
154	159	158	1
154	159	163	1
158	159	163	1
159	154	162	1
159	158	161	1
44	166	167	1
61	164	165	1
98	97	108	1
96	97	108	1
108	136	129	1
108	136	138	1
98	99	106	1
100	99	106	1
106	116	110	1
106	116	117	1
97	108	109	1
97	108	136	1
97	98	99	1
97	98	102	1
97	96	101	1
97	96	104	1
99	106	107	1
99	106	116	1
99	98	102	1
99	100	101	1
99	100	103	1
96	97	98	1
98	99	100	1
96	101	100	1
96	101	105	1
100	101	105	1
101	96	104	1
101	100	103	1
109	108	136	1
107	106	116	1
83	82	93	1
81	82	93	1
83	84	91	1
85	84	91	1
91	131	125	1
91	131	132	1
82	93	94	1
82	93	95	1
82	83	84	1
82	83	87	1
82	81	86	1
82	81	89	1
84	91	92	1
84	91	131	1
84	83	87	1
84	85	86	1
84	85	88	1
81	82	83	1
83	84	85	1
81	86	85	1
81	86	90	1
85	86	90	1
86	81	89	1
86	85	88	1
94	93	95	1
92	91	131	1
50	51	52	1
50	51	58	1
50	53	54	1
50	53	59	1
50	56	57	1
51	52	55	1
51	52	62	1
51	50	53	1
51	50	56	1
52	51	58	1
52	55	54	1
52	55	60	1
52	62	64	1
52	62	65	1
55	52	62	1
53	54	55	1
55	54	61	1
54	55	60	1
54	53	59	1
54	61	63	1
53	54	61	1
53	50	56	1
62	65	66	1
64	62	65	1
33	34	35	1
35	34	41	1
35	38	37	1
35	38	43	1
35	45	47	1
35	45	48	1
34	33	36	1
34	33	39	1
34	35	38	1
34	35	45	1
33	34	41	1
33	36	37	1
33	36	42	1
33	39	40	1
36	33	39	1
36	37	38	1
36	37	44	1
37	36	42	1
37	38	43	1
37	44	46	1
38	37	44	1
38	35	45	1
45	48	49	1
47	45	48	1
125	128	129	1
125	128	134	1
125	126	127	1
125	126	133	1
125	131	132	1
128	129	130	1
128	129	136	1
126	125	128	1
128	125	131	1
129	128	134	1
127	130	129	1
129	130	135	1
129	136	138	1
130	129	136	1
126	127	130	1
130	127	137	1
127	130	135	1
127	126	133	1
127	137	139	1
126	127	137	1
126	125	131	1
110	111	112	1
110	111	118	1
110	113	114	1
110	113	119	1
110	116	117	1
111	112	115	1
111	112	122	1
111	110	113	1
111	110	116	1
112	111	118	1
112	115	114	1
112	115	120	1
112	122	124	1
115	112	122	1
113	114	115	1
115	114	121	1
114	115	120	1
114	113	119	1
114	121	123	1
113	114	121	1
113	110	116	1
8	9	4	1
4	9	18	1
6	5	4	1
4	5	16	1
4	2	3	1
4	2	1	1
7	8	9	1
9	8	10	1
9	4	5	1
9	4	2	1
8	9	18	1
8	7	6	1
8	7	17	1
8	10	11	1
7	8	10	1
7	6	5	1
7	6	12	1
6	7	17	1
6	5	16	1
6	12	13	1
6	12	14	1
5	6	12	1
5	4	2	1
2	1	15	1
13	12	14	1
3	2	1	1

[ dihedrals ]
143	142	141	152	9
146	142	141	152	9
145	140	141	152	9
148	140	141	152	9
152	121	114	115	9
152	121	114	113	9
141	142	143	150	9
146	142	143	150	9
145	144	143	150	9
147	144	143	150	9
150	137	127	130	9
150	137	127	126	9
141	152	121	114	9
141	152	121	123	9
141	142	143	144	9
141	140	145	144	9
141	140	145	149	9
143	150	137	127	9
143	150	137	139	9
140	141	142	143	9
140	145	144	143	9
143	144	145	149	9
142	141	152	153	9
142	141	152	121	9
142	141	140	145	9
142	141	140	148	9
142	143	150	151	9
142	143	150	137	9
142	143	144	145	9
142	143	144	147	9
140	141	152	153	9
140	141	152	121	9
140	141	142	146	9
140	145	144	147	9
144	143	150	151	9
144	143	150	137	9
144	143	142	146	9
144	145	140	148	9
148	140	145	149	9
147	144	145	149	9
153	152	121	114	9
153	152	121	123	9
151	150	137	127	9
151	150	137	139	9
68	69	70	77	9
73	69	70	77	9
72	71	70	77	9
74	71	70	77	9
51	50	56	77	9
53	50	56	77	9
70	69	68	79	9
73	69	68	79	9
72	67	68	79	9
75	67	68	79	9
79	122	112	111	9
79	122	112	115	9
50	56	77	70	9
57	56	77	70	9
67	68	69	70	9
67	72	71	70	9
70	71	72	76	9
68	79	122	112	9
68	79	122	124	9
68	69	70	71	9
68	67	72	71	9
68	67	72	76	9
69	70	77	78	9
56	77	70	69	9
69	70	71	72	9
69	70	71	74	9
69	68	79	80	9
69	68	79	122	9
69	68	67	72	9
69	68	67	75	9
71	70	77	78	9
56	77	70	71	9
71	70	69	73	9
71	72	67	75	9
67	68	79	80	9
67	68	79	122	9
67	68	69	73	9
67	72	71	74	9
74	71	72	76	9
75	67	72	76	9
50	56	77	78	9
57	56	77	78	9
80	79	122	112	9
80	79	122	124	9
22	21	20	31	9
25	21	20	31	9
24	19	20	31	9
27	19	20	31	9
34	33	39	31	9
36	33	39	31	9
20	21	22	29	9
25	21	22	29	9
24	23	22	29	9
26	23	22	29	9
9	8	10	29	9
7	8	10	29	9
33	39	31	20	9
40	39	31	20	9
20	21	22	23	9
20	19	24	23	9
20	19	24	28	9
8	10	29	22	9
11	10	29	22	9
19	20	21	22	9
19	24	23	22	9
22	23	24	28	9
21	20	31	32	9
39	31	20	21	9
21	20	19	24	9
21	20	19	27	9
21	22	29	30	9
10	29	22	21	9
21	22	23	24	9
21	22	23	26	9
19	20	31	32	9
39	31	20	19	9
19	20	21	25	9
19	24	23	26	9
23	22	29	30	9
10	29	22	23	9
23	22	21	25	9
23	24	19	27	9
27	19	24	28	9
26	23	24	28	9
33	39	31	32	9
40	39	31	32	9
8	10	29	30	9
11	10	29	30	9
157	156	155	166	9
160	156	155	166	9
159	154	155	166	9
162	154	155	166	9
36	37	44	166	9
38	37	44	166	9
155	156	157	164	9
160	156	157	164	9
159	158	157	164	9
161	158	157	164	9
55	54	61	164	9
53	54	61	164	9
37	44	166	155	9
46	44	166	155	9
155	156	157	158	9
155	154	159	158	9
155	154	159	163	9
54	61	164	157	9
63	61	164	157	9
154	155	156	157	9
154	159	158	157	9
157	158	159	163	9
156	155	166	167	9
44	166	155	156	9
156	155	154	159	9
156	155	154	162	9
156	157	164	165	9
61	164	157	156	9
156	157	158	159	9
156	157	158	161	9
154	155	166	167	9
44	166	155	154	9
154	155	156	160	9
154	159	158	161	9
158	157	164	165	9
61	164	157	158	9
158	157	156	160	9
158	159	154	162	9
162	154	159	163	9
161	158	159	163	9
37	44	166	167	9
46	44	166	167	9
54	61	164	165	9
63	61	164	165	9
99	98	97	108	9
102	98	97	108	9
101	96	97	108	9
104	96	97	108	9
108	136	129	128	9
108	136	129	130	9
97	98	99	106	9
102	98	99	106	9
101	100	99	106	9
103	100	99	106	9
106	116	110	111	9
106	116	110	113	9
97	108	136	129	9
97	108	136	138	9
97	98	99	100	9
97	96	101	100	9
97	96	101	105	9
99	106	116	110	9
99	106	116	117	9
96	97	98	99	9
96	101	100	99	9
99	100	101	105	9
98	97	108	109	9
98	97	108	136	9
98	97	96	101	9
98	97	96	104	9
98	99	106	107	9
98	99	106	116	9
98	99	100	101	9
98	99	100	103	9
96	97	108	109	9
96	97	108	136	9
96	97	98	102	9
96	101	100	103	9
100	99	106	107	9
100	99	106	116	9
100	99	98	102	9
100	101	96	104	9
104	96	101	105	9
103	100	101	105	9
109	108	136	129	9
109	108	136	138	9
107	106	116	110	9
107	106	116	117	9
84	83	82	93	9
87	83	82	93	9
86	81	82	93	9
89	81	82	93	9
82	83	84	91	9
87	83	84	91	9
86	85	84	91	9
88	85	84	91	9
91	131	125	128	9
91	131	125	126	9
82	83	84	85	9
82	81	86	85	9
82	81	86	90	9
84	91	131	125	9
84	91	131	132	9
81	82	83	84	9
81	86	85	84	9
84	85	86	90	9
83	82	93	94	9
83	82	93	95	9
83	82	81	86	9
83	82	81	89	9
83	84	91	92	9
83	84	91	131	9
83	84	85	86	9
83	84	85	88	9
81	82	93	94	9
81	82	93	95	9
81	82	83	87	9
81	86	85	88	9
85	84	91	92	9
85	84	91	131	9
85	84	83	87	9
85	86	81	89	9
89	81	86	90	9
88	85	86	90	9
92	91	131	125	9
92	91	131	132	9
50	51	52	55	9
50	51	52	62	9
50	53	54	55	9
50	53	54	61	9
51	52	55	54	9
51	52	55	60	9
51	52	62	64	9
51	52	62	65	9
51	50	53	54	9
51	50	53	59	9
51	50	56	57	9
52	51	50	53	9
52	51	50	56	9
52	55	54	53	9
52	55	54	61	9
52	62	65	66	9
55	52	51	58	9
55	52	62	64	9
55	52	62	65	9
55	54	53	59	9
55	54	61	63	9
54	55	52	62	9
54	53	50	56	9
53	54	55	60	9
53	54	61	63	9
53	50	51	58	9
53	50	56	57	9
60	55	54	61	9
59	53	54	61	9
56	50	51	58	9
56	50	53	59	9
58	51	52	62	9
60	55	52	62	9
64	62	65	66	9
35	34	33	36	9
35	34	33	39	9
35	38	37	36	9
35	38	37	44	9
35	45	48	49	9
34	33	36	37	9
34	33	36	42	9
34	33	39	40	9
34	35	38	37	9
34	35	38	43	9
34	35	45	47	9
34	35	45	48	9
33	34	35	38	9
33	34	35	45	9
33	36	37	38	9
33	36	37	44	9
36	33	34	41	9
36	33	39	40	9
36	37	38	43	9
36	37	44	46	9
37	36	33	39	9
37	38	35	45	9
38	37	36	42	9
38	37	44	46	9
38	35	34	41	9
38	35	45	47	9
38	35	45	48	9
42	36	37	44	9
43	38	37	44	9
41	34	35	45	9
43	38	35	45	9
39	33	34	41	9
39	33	36	42	9
47	45	48	49	9
125	128	129	130	9
125	128	129	136	9
125	126	127	130	9
125	126	127	137	9
127	130	129	128	9
128	129	130	135	9
128	129	136	138	9
127	126	125	128	9
128	125	126	133	9
128	125	131	132	9
126	125	128	129	9
129	128	125	131	9
126	127	130	129	9
129	130	127	137	9
130	129	128	134	9
130	129	136	138	9
130	127	126	133	9
130	127	137	139	9
127	130	129	136	9
127	126	125	131	9
126	127	130	135	9
126	127	137	139	9
126	125	128	134	9
126	125	131	132	9
135	130	127	137	9
133	126	127	137	9
131	125	128	134	9
131	125	126	133	9
134	128	129	136	9
135	130	129	136	9
110	111	112	115	9
110	111	112	122	9
110	113	114	115	9
110	113	114	121	9
111	112	115	114	9
111	112	115	120	9
111	112	122	124	9
111	110	113	114	9
111	110	113	119	9
111	110	116	117	9
112	111	110	113	9
112	111	110	116	9
112	115	114	113	9
112	115	114	121	9
115	112	111	118	9
115	112	122	124	9
115	114	113	119	9
115	114	121	123	9
114	115	112	122	9
114	113	110	116	9
113	114	115	120	9
113	114	121	123	9
113	110	111	118	9
113	110	116	117	9
120	115	114	121	9
119	113	114	121	9
116	110	111	118	9
116	110	113	119	9
118	111	112	122	9
120	115	112	122	9
7	8	9	4	9
4	9	8	10	9
7	6	5	4	9
4	5	6	12	9
4	2	1	15	9
6	7	8	9	9
9	8	7	17	9
9	8	10	11	9
6	5	4	9	9
9	4	5	16	9
9	4	2	3	9
9	4	2	1	9
8	9	4	5	9
8	9	4	2	9
8	7	6	5	9
8	7	6	12	9
7	8	9	18	9
7	8	10	11	9
7	6	5	16	9
7	6	12	13	9
7	6	12	14	9
6	7	8	10	9
6	5	4	2	9
5	6	7	17	9
5	6	12	13	9
5	6	12	14	9
5	4	9	18	9
5	4	2	3	9
5	4	2	1	9
17	7	6	12	9
16	5	6	12	9
18	9	4	2	9
16	5	4	2	9
10	8	9	18	9
10	8	7	17	9
3	2	1	15	9
153	152	141	121	2
151	150	143	137	2
152	140	142	141	2
150	143	144	142	2
146	141	143	142	2
148	141	145	140	2
147	143	145	144	2
149	144	140	145	2
78	77	70	56	2
80	79	68	122	2
77	71	69	70	2
79	69	67	68	2
73	68	70	69	2
74	72	70	71	2
75	72	68	67	2
76	67	71	72	2
32	31	20	39	2
30	29	22	10	2
31	19	21	20	2
29	23	21	22	2
25	22	20	21	2
27	20	24	19	2
26	22	24	23	2
28	19	23	24	2
167	166	155	44	2
165	164	157	61	2
166	156	154	155	2
164	156	158	157	2
160	155	157	156	2
162	155	159	154	2
161	157	159	158	2
163	158	154	159	2
109	108	97	136	2
107	106	99	116	2
108	97	96	98	2
106	98	100	99	2
102	99	97	98	2
104	97	101	96	2
103	99	101	100	2
105	100	96	101	2
93	94	82	95	2
92	91	84	131	2
93	83	81	82	2
91	83	85	84	2
87	84	82	83	2
89	82	86	81	2
88	84	86	85	2
90	81	85	86	2
50	53	51	56	2
58	50	52	51	2
52	51	55	62	2
60	52	54	55	2
54	53	55	61	2
59	54	50	53	2
61	63	54	164	2
56	57	50	77	2
62	64	52	65	2
35	38	34	45	2
41	35	33	34	2
33	36	34	39	2
42	37	33	36	2
37	36	38	44	2
43	37	35	38	2
44	46	37	166	2
45	47	35	48	2
39	40	33	31	2
125	128	126	131	2
134	129	125	128	2
129	128	130	136	2
135	127	129	130	2
127	126	130	137	2
133	125	127	126	2
137	139	127	150	2
131	132	125	91	2
136	138	129	108	2
110	111	113	116	2
118	110	112	111	2
112	111	115	122	2
120	112	114	115	2
114	115	113	121	2
119	114	110	113	2
121	123	114	152	2
116	117	110	106	2
122	124	112	79	2
4	9	5	2	2
18	8	4	9	2
8	9	7	10	2
17	8	6	7	2
6	7	5	12	2
16	4	6	5	2
12	14	6	13	2
2	3	4	1	2
10	11	8	29	2


[ moleculetype ]
; Name	nrexcl
MOL3	3

[ atoms ]
;nr	type	resnr	residue	atom	cgnr	charge	mass
1	CB	1	MPD1	C	1	-0.15	12.011
2	CB	1	MPD1	C1	1	0.1	12.011
3	CB	1	MPD1	C2	1	-0.15	12.011
4	CB	1	MPD1	C3	1	0.117	12.011
5	CB	1	MPD1	C4	1	-0.15	12.011
6	CB	1	MPD1	C5	1	-0.15	12.011
7	HCMM	1	MPD1	H	1	0.15	1.0079
8	HCMM	1	MPD1	H1	1	0.15	1.0079
9	HCMM	1	MPD1	H2	1	0.15	1.0079
10	HCMM	1	MPD1	H3	1	0.15	1.0079
11	NC=O	1	MPD1	N	1	-0.547	14.0067
12	HNCO	1	MPD1	H5	1	0.37	1.0079
13	NC=C	1	MPD1	N1	1	-0.9	14.0067
14	HNCO	1	MPD1	H6	1	0.4	1.0079
15	HNCO	1	MPD1	H7	1	0.4	1.0079
16	CB	2	MPD1	C	1	-0.15	12.011
17	CB	2	MPD1	C1	1	0.1	12.011
18	CB	2	MPD1	C2	1	-0.15	12.011
19	CB	2	MPD1	C3	1	0.117	12.011
20	CB	2	MPD1	C4	1	-0.15	12.011
21	CB	2	MPD1	C5	1	-0.15	12.011
22	HCMM	2	MPD1	H	1	0.15	1.0079
23	HCMM	2	MPD1	H1	1	0.15	1.0079
24	HCMM	2	MPD1	H2	1	0.15	1.0079
25	HCMM	2	MPD1	H3	1	0.15	1.0079
26	NC=O	2	MPD1	N	1	-0.547	14.0067
27	HNCO	2	MPD1	H5	1	0.37	1.0079
28	NC=C	2	MPD1	N1	1	-0.9	14.0067
29	HNCO	2	MPD1	H6	1	0.4	1.0079
30	HNCO	2	MPD1	H7	1	0.4	1.0079
31	CB	3	TMC3	C1	1	0.0862	12.011
32	CB	3	TMC3	C2	1	-0.15	12.011
33	CB	3	TMC3	C3	1	0.0862	12.011
34	CB	3	TMC3	C4	1	-0.15	12.011
35	CB	3	TMC3	C5	1	0.0862	12.011
36	CB	3	TMC3	C6	1	-0.15	12.011
37	C=O	3	TMC3	C	1	0.5438	12.011
38	O=C	3	TMC3	O	1	-0.57	15.9994
39	HCMM	3	TMC3	H	1	0.15	1.0079
40	HCMM	3	TMC3	H1	1	0.15	1.0079
41	HCMM	3	TMC3	H2	1	0.15	1.0079
42	C=O	3	TMC3	C7	1	0.5438	12.011
43	C=O	3	TMC3	C8	1	0.5438	12.011
44	O=C	3	TMC3	O1	1	-0.57	15.9994
45	O=C	3	TMC3	O2	1	-0.57	15.9994
46	CB	4	MPD1	C	1	-0.15	12.011
47	CB	4	MPD1	C1	1	0.1	12.011
48	CB	4	MPD1	C2	1	-0.15	12.011
49	CB	4	MPD1	C3	1	0.117	12.011
50	CB	4	MPD1	C4	1	-0.15	12.011
51	CB	4	MPD1	C5	1	-0.15	12.011
52	HCMM	4	MPD1	H	1	0.15	1.0079
53	HCMM	4	MPD1	H1	1	0.15	1.0079
54	HCMM	4	MPD1	H2	1	0.15	1.0079
55	HCMM	4	MPD1	H3	1	0.15	1.0079
56	NC=O	4	MPD1	N	1	-0.547	14.0067
57	HNCO	4	MPD1	H5	1	0.37	1.0079
58	NC=C	4	MPD1	N1	1	-0.9	14.0067
59	HNCO	4	MPD1	H6	1	0.4	1.0079
60	HNCO	4	MPD1	H7	1	0.4	1.0079

[ bonds ]
19	26	1
26	27	1
26	37	1
17	28	1
28	29	1
28	30	1
18	19	1
19	20	1
17	18	1
16	17	1
18	22	1
20	21	1
20	23	1
16	21	1
16	24	1
21	25	1
47	58	1
58	59	1
58	60	1
49	56	1
56	57	1
56	43	1
47	48	1
46	47	1
48	49	1
49	50	1
48	52	1
46	51	1
46	54	1
50	51	1
50	53	1
51	55	1
4	11	1
11	12	1
11	42	1
2	13	1
13	14	1
13	15	1
3	4	1
4	5	1
2	3	1
1	2	1
3	7	1
5	6	1
5	8	1
1	6	1
1	9	1
6	10	1
31	34	1
31	32	1
31	37	1
34	35	1
34	40	1
35	36	1
35	42	1
33	36	1
36	41	1
32	33	1
33	43	1
32	39	1
43	45	1
37	38	1
42	44	1

[ angles ]
18	19	26	1
20	19	26	1
26	37	31	1
26	37	38	1
18	17	28	1
16	17	28	1
19	26	27	1
19	26	37	1
17	18	19	1
19	18	22	1
19	20	21	1
19	20	23	1
17	28	29	1
17	28	30	1
17	18	22	1
17	16	21	1
17	16	24	1
18	19	20	1
16	17	18	1
16	21	20	1
20	21	25	1
16	21	25	1
21	20	23	1
21	16	24	1
27	26	37	1
29	28	30	1
48	47	58	1
46	47	58	1
48	49	56	1
50	49	56	1
56	43	33	1
56	43	45	1
47	58	59	1
47	58	60	1
47	48	49	1
47	48	52	1
47	46	51	1
47	46	54	1
49	56	57	1
49	56	43	1
49	48	52	1
49	50	51	1
49	50	53	1
46	47	48	1
48	49	50	1
46	51	50	1
46	51	55	1
50	51	55	1
51	46	54	1
51	50	53	1
59	58	60	1
57	56	43	1
3	4	11	1
5	4	11	1
11	42	35	1
11	42	44	1
3	2	13	1
1	2	13	1
4	11	12	1
4	11	42	1
2	3	4	1
4	3	7	1
4	5	6	1
4	5	8	1
2	13	14	1
2	13	15	1
2	3	7	1
2	1	6	1
2	1	9	1
3	4	5	1
1	2	3	1
1	6	5	1
5	6	10	1
1	6	10	1
6	5	8	1
6	1	9	1
12	11	42	1
14	13	15	1
31	34	35	1
31	34	40	1
31	32	33	1
31	32	39	1
31	37	38	1
34	35	36	1
34	35	42	1
32	31	34	1
34	31	37	1
35	34	40	1
33	36	35	1
35	36	41	1
35	42	44	1
36	35	42	1
32	33	36	1
36	33	43	1
33	36	41	1
33	32	39	1
33	43	45	1
32	33	43	1
32	31	37	1

[ dihedrals ]
17	18	19	26	9
22	18	19	26	9
21	20	19	26	9
23	20	19	26	9
26	37	31	34	9
26	37	31	32	9
19	18	17	28	9
22	18	17	28	9
21	16	17	28	9
24	16	17	28	9
19	26	37	31	9
19	26	37	38	9
16	17	18	19	9
16	21	20	19	9
19	20	21	25	9
17	18	19	20	9
17	16	21	20	9
17	16	21	25	9
18	19	26	27	9
18	19	26	37	9
18	19	20	21	9
18	19	20	23	9
18	17	28	29	9
18	17	28	30	9
18	17	16	21	9
18	17	16	24	9
20	19	26	27	9
20	19	26	37	9
20	19	18	22	9
20	21	16	24	9
16	17	28	29	9
16	17	28	30	9
16	17	18	22	9
16	21	20	23	9
23	20	21	25	9
24	16	21	25	9
27	26	37	31	9
27	26	37	38	9
49	48	47	58	9
52	48	47	58	9
51	46	47	58	9
54	46	47	58	9
47	48	49	56	9
52	48	49	56	9
51	50	49	56	9
53	50	49	56	9
56	43	33	36	9
56	43	33	32	9
47	48	49	50	9
47	46	51	50	9
47	46	51	55	9
49	56	43	33	9
49	56	43	45	9
46	47	48	49	9
46	51	50	49	9
49	50	51	55	9
48	47	58	59	9
48	47	58	60	9
48	47	46	51	9
48	47	46	54	9
48	49	56	57	9
48	49	56	43	9
48	49	50	51	9
48	49	50	53	9
46	47	58	59	9
46	47	58	60	9
46	47	48	52	9
46	51	50	53	9
50	49	56	57	9
50	49	56	43	9
50	49	48	52	9
50	51	46	54	9
54	46	51	55	9
53	50	51	55	9
57	56	43	33	9
57	56	43	45	9
2	3	4	11	9
7	3	4	11	9
6	5	4	11	9
8	5	4	11	9
11	42	35	34	9
11	42	35	36	9
4	3	2	13	9
7	3	2	13	9
6	1	2	13	9
9	1	2	13	9
4	11	42	35	9
4	11	42	44	9
1	2	3	4	9
1	6	5	4	9
4	5	6	10	9
2	3	4	5	9
2	1	6	5	9
2	1	6	10	9
3	4	11	12	9
3	4	11	42	9
3	4	5	6	9
3	4	5	8	9
3	2	13	14	9
3	2	13	15	9
3	2	1	6	9
3	2	1	9	9
5	4	11	12	9
5	4	11	42	9
5	4	3	7	9
5	6	1	9	9
1	2	13	14	9
1	2	13	15	9
1	2	3	7	9
1	6	5	8	9
8	5	6	10	9
9	1	6	10	9
12	11	42	35	9
12	11	42	44	9
31	34	35	36	9
31	34	35	42	9
31	32	33	36	9
31	32	33	43	9
33	36	35	34	9
34	35	36	41	9
34	35	42	44	9
33	32	31	34	9
34	31	32	39	9
34	31	37	38	9
32	31	34	35	9
35	34	31	37	9
32	33	36	35	9
35	36	33	43	9
36	35	34	40	9
36	35	42	44	9
36	33	32	39	9
36	33	43	45	9
33	36	35	42	9
33	32	31	37	9
32	33	36	41	9
32	33	43	45	9
32	31	34	40	9
32	31	37	38	9
41	36	33	43	9
39	32	33	43	9
37	31	34	40	9
37	31	32	39	9
40	34	35	42	9
41	36	35	42	9
27	26	19	37	2
28	30	17	29	2
26	20	18	19	2
28	18	16	17	2
22	17	19	18	2
23	21	19	20	2
24	17	21	16	2
25	16	20	21	2
58	59	47	60	2
57	56	49	43	2
58	46	48	47	2
56	50	48	49	2
52	47	49	48	2
54	47	51	46	2
53	49	51	50	2
55	46	50	51	2
12	11	4	42	2
13	14	2	15	2
11	5	3	4	2
13	1	3	2	2
7	4	2	3	2
8	6	4	5	2
9	6	2	1	2
10	1	5	6	2
31	34	32	37	2
40	31	35	34	2
35	36	34	42	2
41	35	33	36	2
33	32	36	43	2
39	31	33	32	2
43	45	33	56	2
37	38	31	26	2
42	44	35	11	2


[ moleculetype ]
; Name	nrexcl
MOL4	3

[ atoms ]
;nr	type	resnr	residue	atom	cgnr	charge	mass
1	OR	1	TCq1	O1	1	-0.65	15.9994
2	C=O	1	TCq1	C1	1	0.6338	12.011
3	O=C	1	TCq1	O2	1	-0.57	15.9994
4	CB	1	TCq1	C2	1	0.0862	12.011
5	CB	1	TCq1	C3	1	-0.15	12.011
6	CB	1	TCq1	C4	1	-0.179	12.011
7	CB	1	TCq1	C5	1	-0.15	12.011
8	CB	1	TCq1	C6	1	0.0862	12.011
9	CB	1	TCq1	C7	1	-0.15	12.011
10	C=O	1	TCq1	C8	1	0.5438	12.011
11	O=C	1	TCq1	O4	1	-0.57	15.9994
12	CO2M	1	TCq1	C9	1	0.979	12.011
13	O2CM	1	TCq1	O5	1	-0.9	15.9994
14	O2CM	1	TCq1	O6	1	-0.9	15.9994
15	HOCO	1	TCq1	H1	1	0.5	1.0079
16	HCMM	1	TCq1	H2	1	0.15	1.0079
17	HCMM	1	TCq1	H3	1	0.15	1.0079
18	HCMM	1	TCq1	H4	1	0.15	1.0079
19	CB	2	MPD1	C	1	-0.15	12.011
20	CB	2	MPD1	C1	1	0.1	12.011
21	CB	2	MPD1	C2	1	-0.15	12.011
22	CB	2	MPD1	C3	1	0.117	12.011
23	CB	2	MPD1	C4	1	-0.15	12.011
24	CB	2	MPD1	C5	1	-0.15	12.011
25	HCMM	2	MPD1	H	1	0.15	1.0079
26	HCMM	2	MPD1	H1	1	0.15	1.0079
27	HCMM	2	MPD1	H2	1	0.15	1.0079
28	HCMM	2	MPD1	H3	1	0.15	1.0079
29	NC=O	2	MPD1	N	1	-0.547	14.0067
30	HNCO	2	MPD1	H5	1	0.37	1.0079
31	NC=C	2	MPD1	N1	1	-0.9	14.0067
32	HNCO	2	MPD1	H6	1	0.4	1.0079
33	HNCO	2	MPD1	H7	1	0.4	1.0079

[ bonds ]
20	31	1
31	32	1
31	33	1
22	29	1
29	30	1
10	29	1
20	21	1
19	20	1
21	22	1
22	23	1
21	25	1
19	24	1
19	27	1
23	24	1
23	26	1
24	28	1
8	7	1
8	9	1
8	10	1
7	6	1
7	17	1
6	5	1
6	12	1
4	5	1
5	16	1
9	4	1
4	2	1
9	18	1
2	3	1
2	1	1
10	11	1
12	13	1
12	14	1
1	15	1

[ angles ]
21	20	31	1
19	20	31	1
21	22	29	1
23	22	29	1
8	10	29	1
11	10	29	1
20	31	32	1
20	31	33	1
20	21	22	1
20	21	25	1
20	19	24	1
20	19	27	1
22	29	30	1
10	29	22	1
22	21	25	1
22	23	24	1
22	23	26	1
19	20	21	1
21	22	23	1
19	24	23	1
19	24	28	1
23	24	28	1
24	19	27	1
24	23	26	1
32	31	33	1
10	29	30	1
8	7	6	1
8	7	17	1
8	9	4	1
8	9	18	1
8	10	11	1
7	6	5	1
7	6	12	1
7	8	9	1
7	8	10	1
6	7	17	1
6	5	4	1
6	5	16	1
6	12	13	1
6	12	14	1
5	6	12	1
9	4	5	1
5	4	2	1
4	5	16	1
4	9	18	1
4	2	3	1
4	2	1	1
9	4	2	1
9	8	10	1
2	1	15	1
3	2	1	1
13	12	14	1

[ dihedrals ]
22	21	20	31	9
25	21	20	31	9
24	19	20	31	9
27	19	20	31	9
20	21	22	29	9
25	21	22	29	9
24	23	22	29	9
26	23	22	29	9
7	8	10	29	9
9	8	10	29	9
20	21	22	23	9
20	19	24	23	9
20	19	24	28	9
8	10	29	22	9
11	10	29	22	9
19	20	21	22	9
19	24	23	22	9
22	23	24	28	9
21	20	31	32	9
21	20	31	33	9
21	20	19	24	9
21	20	19	27	9
21	22	29	30	9
10	29	22	21	9
21	22	23	24	9
21	22	23	26	9
19	20	31	32	9
19	20	31	33	9
19	20	21	25	9
19	24	23	26	9
23	22	29	30	9
10	29	22	23	9
23	22	21	25	9
23	24	19	27	9
27	19	24	28	9
26	23	24	28	9
8	10	29	30	9
11	10	29	30	9
8	7	6	5	9
8	7	6	12	9
8	9	4	5	9
8	9	4	2	9
7	6	5	4	9
7	6	5	16	9
7	6	12	13	9
7	6	12	14	9
7	8	9	4	9
7	8	9	18	9
7	8	10	11	9
6	7	8	9	9
6	7	8	10	9
6	5	4	9	9
6	5	4	2	9
5	6	7	17	9
5	6	12	13	9
5	6	12	14	9
5	4	9	18	9
5	4	2	3	9
5	4	2	1	9
4	5	6	12	9
4	9	8	10	9
4	2	1	15	9
9	4	5	16	9
9	4	2	3	9
9	4	2	1	9
9	8	7	17	9
9	8	10	11	9
16	5	4	2	9
18	9	4	2	9
10	8	7	17	9
10	8	9	18	9
17	7	6	12	9
16	5	6	12	9
3	2	1	15	9
31	32	20	33	2
30	29	22	10	2
31	19	21	20	2
29	23	21	22	2
25	22	20	21	2
27	20	24	19	2
26	24	22	23	2
28	19	23	24	2
8	7	9	10	2
17	8	6	7	2
7	5	6	12	2
16	6	5	4	2
4	5	9	2	2
18	8	4	9	2
2	3	4	1	2
10	11	8	29	2
12	14	6	13	2


[ moleculetype ]
; Name	nrexcl
MOL5	3

[ atoms ]
;nr	type	resnr	residue	atom	cgnr	charge	mass
1	CB	1	MPD1	C	1	-0.15	12.011
2	CB	1	MPD1	C1	1	0.1	12.011
3	CB	1	MPD1	C2	1	-0.15	12.011
4	CB	1	MPD1	C3	1	0.117	12.011
5	CB	1	MPD1	C4	1	-0.15	12.011
6	CB	1	MPD1	C5	1	-0.15	12.011
7	HCMM	1	MPD1	H	1	0.15	1.0079
8	HCMM	1	MPD1	H1	1	0.15	1.0079
9	HCMM	1	MPD1	H2	1	0.15	1.0079
10	HCMM	1	MPD1	H3	1	0.15	1.0079
11	NC=O	1	MPD1	N	1	-0.547	14.0067
12	HNCO	1	MPD1	H5	1	0.37	1.0079
13	NC=C	1	MPD1	N1	1	-0.9	14.0067
14	HNCO	1	MPD1	H6	1	0.4	1.0079
15	HNCO	1	MPD1	H7	1	0.4	1.0079
16	CB	2	MPD1	C	1	-0.15	12.011
17	CB	2	MPD1	C1	1	0.1	12.011
18	CB	2	MPD1	C2	1	-0.15	12.011
19	CB	2	MPD1	C3	1	0.117	12.011
20	CB	2	MPD1	C4	1	-0.15	12.011
21	CB	2	MPD1	C5	1	-0.15	12.011
22	HCMM	2	MPD1	H	1	0.15	1.0079
23	HCMM	2	MPD1	H1	1	0.15	1.0079
24	HCMM	2	MPD1	H2	1	0.15	1.0079
25	HCMM	2	MPD1	H3	1	0.15	1.0079
26	NC=O	2	MPD1	N	1	-0.547	14.0067
27	HNCO	2	MPD1	H5	1	0.37	1.0079
28	NC=C	2	MPD1	N1	1	-0.9	14.0067
29	HNCO	2	MPD1	H6	1	0.4	1.0079
30	HNCO	2	MPD1	H7	1	0.4	1.0079
31	CB	3	MPD1	C	1	-0.15	12.011
32	CB	3	MPD1	C1	1	0.1	12.011
33	CB	3	MPD1	C2	1	-0.15	12.011
34	CB	3	MPD1	C3	1	0.117	12.011
35	CB	3	MPD1	C4	1	-0.15	12.011
36	CB	3	MPD1	C5	1	-0.15	12.011
37	HCMM	3	MPD1	H	1	0.15	1.0079
38	HCMM	3	MPD1	H1	1	0.15	1.0079
39	HCMM	3	MPD1	H2	1	0.15	1.0079
40	HCMM	3	MPD1	H3	1	0.15	1.0079
41	NC=O	3	MPD1	N	1	-0.547	14.0067
42	HNCO	3	MPD1	H5	1	0.37	1.0079
43	NC=C	3	MPD1	N1	1	-0.9	14.0067
44	HNCO	3	MPD1	H6	1	0.4	1.0079
45	HNCO	3	MPD1	H7	1	0.4	1.0079
46	CB	4	MPD2	C	1	-0.15	12.011
47	CB	4	MPD2	C1	1	0.117	12.011
48	CB	4	MPD2	C2	1	-0.15	12.011
49	CB	4	MPD2	C3	1	0.117	12.011
50	CB	4	MPD2	C4	1	-0.15	12.011
51	CB	4	MPD2	C5	1	-0.15	12.011
52	HCMM	4	MPD2	H	1	0.15	1.0079
53	HCMM	4	MPD2	H1	1	0.15	1.0079
54	HCMM	4	MPD2	H2	1	0.15	1.0079
55	HCMM	4	MPD2	H3	1	0.15	1.0079
56	NC=O	4	MPD2	N	1	-0.547	14.0067
57	HNCO	4	MPD2	H5	1	0.37	1.0079
58	NC=O	4	MPD2	N1	1	-0.547	14.0067
59	HNCO	4	MPD2	H7	1	0.37	1.0079
60	CB	5	TMC3	C1	1	0.0862	12.011
61	CB	5	TMC3	C2	1	-0.15	12.011
62	CB	5	TMC3	C3	1	0.0862	12.011
63	CB	5	TMC3	C4	1	-0.15	12.011
64	CB	5	TMC3	C5	1	0.0862	12.011
65	CB	5	TMC3	C6	1	-0.15	12.011
66	C=O	5	TMC3	C	1	0.5438	12.011
67	O=C	5	TMC3	O	1	-0.57	15.9994
68	HCMM	5	TMC3	H	1	0.15	1.0079
69	HCMM	5	TMC3	H1	1	0.15	1.0079
70	HCMM	5	TMC3	H2	1	0.15	1.0079
71	C=O	5	TMC3	C7	1	0.5438	12.011
72	C=O	5	TMC3	C8	1	0.5438	12.011
73	O=C	5	TMC3	O1	1	-0.57	15.9994
74	O=C	5	TMC3	O2	1	-0.57	15.9994
75	CB	6	TMC3	C1	1	0.0862	12.011
76	CB	6	TMC3	C2	1	-0.15	12.011
77	CB	6	TMC3	C3	1	0.0862	12.011
78	CB	6	TMC3	C4	1	-0.15	12.011
79	CB	6	TMC3	C5	1	0.0862	12.011
80	CB	6	TMC3	C6	1	-0.15	12.011
81	C=O	6	TMC3	C	1	0.5438	12.011
82	O=C	6	TMC3	O	1	-0.57	15.9994
83	HCMM	6	TMC3	H	1	0.15	1.0079
84	HCMM	6	TMC3	H1	1	0.15	1.0079
85	HCMM	6	TMC3	H2	1	0.15	1.0079
86	C=O	6	TMC3	C7	1	0.5438	12.011
87	C=O	6	TMC3	C8	1	0.5438	12.011
88	O=C	6	TMC3	O1	1	-0.57	15.9994
89	O=C	6	TMC3	O2	1	-0.57	15.9994
90	CB	7	MPD2	C	1	-0.15	12.011
91	CB	7	MPD2	C1	1	0.117	12.011
92	CB	7	MPD2	C2	1	-0.15	12.011
93	CB	7	MPD2	C3	1	0.117	12.011
94	CB	7	MPD2	C4	1	-0.15	12.011
95	CB	7	MPD2	C5	1	-0.15	12.011
96	HCMM	7	MPD2	H	1	0.15	1.0079
97	HCMM	7	MPD2	H1	1	0.15	1.0079
98	HCMM	7	MPD2	H2	1	0.15	1.0079
99	HCMM	7	MPD2	H3	1	0.15	1.0079
100	NC=O	7	MPD2	N	1	-0.547	14.0067
101	HNCO	7	MPD2	H5	1	0.37	1.0079
102	NC=O	7	MPD2	N1	1	-0.547	14.0067
103	HNCO	7	MPD2	H7	1	0.37	1.0079
104	CB	8	TMC3	C1	1	0.0862	12.011
105	CB	8	TMC3	C2	1	-0.15	12.011
106	CB	8	TMC3	C3	1	0.0862	12.011
107	CB	8	TMC3	C4	1	-0.15	12.011
108	CB	8	TMC3	C5	1	0.0862	12.011
109	CB	8	TMC3	C6	1	-0.15	12.011
110	C=O	8	TMC3	C	1	0.5438	12.011
111	O=C	8	TMC3	O	1	-0.57	15.9994
112	HCMM	8	TMC3	H	1	0.15	1.0079
113	HCMM	8	TMC3	H1	1	0.15	1.0079
114	HCMM	8	TMC3	H2	1	0.15	1.0079
115	C=O	8	TMC3	C7	1	0.5438	12.011
116	C=O	8	TMC3	C8	1	0.5438	12.011
117	O=C	8	TMC3	O1	1	-0.57	15.9994
118	O=C	8	TMC3	O2	1	-0.57	15.9994
119	CB	9	MPD2	C	1	-0.15	12.011
120	CB	9	MPD2	C1	1	0.117	12.011
121	CB	9	MPD2	C2	1	-0.15	12.011
122	CB	9	MPD2	C3	1	0.117	12.011
123	CB	9	MPD2	C4	1	-0.15	12.011
124	CB	9	MPD2	C5	1	-0.15	12.011
125	HCMM	9	MPD2	H	1	0.15	1.0079
126	HCMM	9	MPD2	H1	1	0.15	1.0079
127	HCMM	9	MPD2	H2	1	0.15	1.0079
128	HCMM	9	MPD2	H3	1	0.15	1.0079
129	NC=O	9	MPD2	N	1	-0.547	14.0067
130	HNCO	9	MPD2	H5	1	0.37	1.0079
131	NC=O	9	MPD2	N1	1	-0.547	14.0067
132	HNCO	9	MPD2	H7	1	0.37	1.0079

[ bonds ]
17	28	1
28	30	1
28	29	1
19	26	1
26	27	1
26	81	1
17	18	1
16	17	1
18	19	1
19	20	1
18	22	1
16	21	1
16	24	1
20	21	1
20	23	1
21	25	1
120	131	1
131	132	1
131	116	1
122	129	1
129	130	1
129	86	1
120	121	1
119	120	1
121	122	1
122	123	1
121	125	1
119	124	1
119	127	1
123	124	1
123	126	1
124	128	1
34	41	1
41	42	1
41	87	1
32	43	1
43	44	1
43	45	1
33	34	1
34	35	1
32	33	1
31	32	1
33	37	1
35	36	1
35	38	1
31	36	1
31	39	1
36	40	1
47	58	1
58	59	1
58	66	1
49	56	1
56	57	1
56	115	1
47	48	1
46	47	1
48	49	1
49	50	1
48	52	1
46	51	1
46	54	1
50	51	1
50	53	1
51	55	1
91	102	1
102	103	1
102	110	1
93	100	1
100	101	1
100	71	1
91	92	1
90	91	1
92	93	1
93	94	1
92	96	1
90	95	1
90	98	1
94	95	1
94	97	1
95	99	1
2	13	1
13	15	1
13	14	1
4	11	1
11	12	1
11	72	1
2	3	1
1	2	1
3	4	1
4	5	1
3	7	1
1	6	1
1	9	1
5	6	1
5	8	1
6	10	1
104	107	1
104	105	1
104	110	1
107	108	1
107	113	1
108	109	1
108	115	1
106	109	1
109	114	1
105	106	1
106	116	1
105	112	1
116	118	1
110	111	1
115	117	1
60	63	1
60	61	1
60	66	1
63	64	1
63	69	1
64	65	1
64	71	1
62	65	1
65	70	1
61	62	1
62	72	1
61	68	1
72	74	1
66	67	1
71	73	1
75	76	1
75	78	1
75	81	1
76	77	1
76	83	1
77	80	1
77	87	1
79	80	1
80	85	1
78	79	1
79	86	1
78	84	1
86	88	1
81	82	1
87	89	1

[ angles ]
18	17	28	1
16	17	28	1
18	19	26	1
20	19	26	1
26	81	75	1
26	81	82	1
17	28	30	1
17	28	29	1
17	18	19	1
17	18	22	1
17	16	21	1
17	16	24	1
19	26	27	1
19	26	81	1
19	18	22	1
19	20	21	1
19	20	23	1
16	17	18	1
18	19	20	1
16	21	20	1
16	21	25	1
20	21	25	1
21	16	24	1
21	20	23	1
30	28	29	1
27	26	81	1
121	120	131	1
119	120	131	1
131	116	106	1
131	116	118	1
121	122	129	1
123	122	129	1
129	86	79	1
129	86	88	1
120	131	132	1
120	131	116	1
120	121	122	1
120	121	125	1
120	119	124	1
120	119	127	1
122	129	130	1
122	129	86	1
122	121	125	1
122	123	124	1
122	123	126	1
119	120	121	1
121	122	123	1
119	124	123	1
119	124	128	1
123	124	128	1
124	119	127	1
124	123	126	1
132	131	116	1
130	129	86	1
33	34	41	1
35	34	41	1
41	87	77	1
41	87	89	1
33	32	43	1
31	32	43	1
34	41	42	1
34	41	87	1
32	33	34	1
34	33	37	1
34	35	36	1
34	35	38	1
32	43	44	1
32	43	45	1
32	33	37	1
32	31	36	1
32	31	39	1
33	34	35	1
31	32	33	1
31	36	35	1
35	36	40	1
31	36	40	1
36	35	38	1
36	31	39	1
42	41	87	1
44	43	45	1
48	47	58	1
46	47	58	1
58	66	60	1
58	66	67	1
48	49	56	1
50	49	56	1
56	115	108	1
56	115	117	1
47	58	59	1
47	58	66	1
47	48	49	1
47	48	52	1
47	46	51	1
47	46	54	1
49	56	57	1
49	56	115	1
49	48	52	1
49	50	51	1
49	50	53	1
46	47	48	1
48	49	50	1
46	51	50	1
46	51	55	1
50	51	55	1
51	46	54	1
51	50	53	1
59	58	66	1
57	56	115	1
92	91	102	1
90	91	102	1
102	110	104	1
102	110	111	1
92	93	100	1
94	93	100	1
100	71	64	1
100	71	73	1
91	102	103	1
91	102	110	1
91	92	93	1
91	92	96	1
91	90	95	1
91	90	98	1
93	100	101	1
93	100	71	1
93	92	96	1
93	94	95	1
93	94	97	1
90	91	92	1
92	93	94	1
90	95	94	1
90	95	99	1
94	95	99	1
95	90	98	1
95	94	97	1
103	102	110	1
101	100	71	1
3	2	13	1
1	2	13	1
3	4	11	1
5	4	11	1
11	72	62	1
11	72	74	1
2	13	15	1
2	13	14	1
2	3	4	1
2	3	7	1
2	1	6	1
2	1	9	1
4	11	12	1
4	11	72	1
4	3	7	1
4	5	6	1
4	5	8	1
1	2	3	1
3	4	5	1
1	6	5	1
1	6	10	1
5	6	10	1
6	1	9	1
6	5	8	1
14	13	15	1
12	11	72	1
104	107	108	1
104	107	113	1
104	105	106	1
104	105	112	1
104	110	111	1
107	108	109	1
107	108	115	1
105	104	107	1
107	104	110	1
108	107	113	1
106	109	108	1
108	109	114	1
108	115	117	1
109	108	115	1
105	106	109	1
109	106	116	1
106	109	114	1
106	105	112	1
106	116	118	1
105	106	116	1
105	104	110	1
60	63	64	1
60	63	69	1
60	61	62	1
60	61	68	1
60	66	67	1
63	64	65	1
63	64	71	1
63	60	61	1
63	60	66	1
64	63	69	1
64	65	62	1
64	65	70	1
64	71	73	1
65	64	71	1
61	62	65	1
65	62	72	1
62	65	70	1
62	61	68	1
62	72	74	1
61	62	72	1
61	60	66	1
75	76	77	1
75	76	83	1
75	78	79	1
75	78	84	1
75	81	82	1
76	77	80	1
76	77	87	1
76	75	78	1
76	75	81	1
77	76	83	1
77	80	79	1
77	80	85	1
77	87	89	1
80	77	87	1
78	79	80	1
80	79	86	1
79	80	85	1
79	78	84	1
79	86	88	1
78	79	86	1
78	75	81	1

[ dihedrals ]
19	18	17	28	9
22	18	17	28	9
21	16	17	28	9
24	16	17	28	9
17	18	19	26	9
22	18	19	26	9
21	20	19	26	9
23	20	19	26	9
26	81	75	76	9
26	81	75	78	9
17	18	19	20	9
17	16	21	20	9
17	16	21	25	9
19	26	81	75	9
19	26	81	82	9
16	17	18	19	9
16	21	20	19	9
19	20	21	25	9
18	17	28	30	9
18	17	28	29	9
18	17	16	21	9
18	17	16	24	9
18	19	26	27	9
18	19	26	81	9
18	19	20	21	9
18	19	20	23	9
16	17	28	30	9
16	17	28	29	9
16	17	18	22	9
16	21	20	23	9
20	19	26	27	9
20	19	26	81	9
20	19	18	22	9
20	21	16	24	9
24	16	21	25	9
23	20	21	25	9
27	26	81	75	9
27	26	81	82	9
122	121	120	131	9
125	121	120	131	9
124	119	120	131	9
127	119	120	131	9
131	116	106	109	9
131	116	106	105	9
120	121	122	129	9
125	121	122	129	9
124	123	122	129	9
126	123	122	129	9
129	86	79	80	9
129	86	79	78	9
120	131	116	106	9
120	131	116	118	9
120	121	122	123	9
120	119	124	123	9
120	119	124	128	9
122	129	86	79	9
122	129	86	88	9
119	120	121	122	9
119	124	123	122	9
122	123	124	128	9
121	120	131	132	9
121	120	131	116	9
121	120	119	124	9
121	120	119	127	9
121	122	129	130	9
121	122	129	86	9
121	122	123	124	9
121	122	123	126	9
119	120	131	132	9
119	120	131	116	9
119	120	121	125	9
119	124	123	126	9
123	122	129	130	9
123	122	129	86	9
123	122	121	125	9
123	124	119	127	9
127	119	124	128	9
126	123	124	128	9
132	131	116	106	9
132	131	116	118	9
130	129	86	79	9
130	129	86	88	9
32	33	34	41	9
37	33	34	41	9
36	35	34	41	9
38	35	34	41	9
41	87	77	76	9
41	87	77	80	9
34	33	32	43	9
37	33	32	43	9
36	31	32	43	9
39	31	32	43	9
34	41	87	77	9
34	41	87	89	9
31	32	33	34	9
31	36	35	34	9
34	35	36	40	9
32	33	34	35	9
32	31	36	35	9
32	31	36	40	9
33	34	41	42	9
33	34	41	87	9
33	34	35	36	9
33	34	35	38	9
33	32	43	44	9
33	32	43	45	9
33	32	31	36	9
33	32	31	39	9
35	34	41	42	9
35	34	41	87	9
35	34	33	37	9
35	36	31	39	9
31	32	43	44	9
31	32	43	45	9
31	32	33	37	9
31	36	35	38	9
38	35	36	40	9
39	31	36	40	9
42	41	87	77	9
42	41	87	89	9
49	48	47	58	9
52	48	47	58	9
51	46	47	58	9
54	46	47	58	9
58	66	60	63	9
58	66	60	61	9
47	48	49	56	9
52	48	49	56	9
51	50	49	56	9
53	50	49	56	9
56	115	108	107	9
56	115	108	109	9
47	58	66	60	9
47	58	66	67	9
47	48	49	50	9
47	46	51	50	9
47	46	51	55	9
49	56	115	108	9
49	56	115	117	9
46	47	48	49	9
46	51	50	49	9
49	50	51	55	9
48	47	58	59	9
48	47	58	66	9
48	47	46	51	9
48	47	46	54	9
48	49	56	57	9
48	49	56	115	9
48	49	50	51	9
48	49	50	53	9
46	47	58	59	9
46	47	58	66	9
46	47	48	52	9
46	51	50	53	9
50	49	56	57	9
50	49	56	115	9
50	49	48	52	9
50	51	46	54	9
54	46	51	55	9
53	50	51	55	9
59	58	66	60	9
59	58	66	67	9
57	56	115	108	9
57	56	115	117	9
93	92	91	102	9
96	92	91	102	9
95	90	91	102	9
98	90	91	102	9
102	110	104	107	9
102	110	104	105	9
91	92	93	100	9
96	92	93	100	9
95	94	93	100	9
97	94	93	100	9
100	71	64	63	9
100	71	64	65	9
91	102	110	104	9
91	102	110	111	9
91	92	93	94	9
91	90	95	94	9
91	90	95	99	9
93	100	71	64	9
93	100	71	73	9
90	91	92	93	9
90	95	94	93	9
93	94	95	99	9
92	91	102	103	9
92	91	102	110	9
92	91	90	95	9
92	91	90	98	9
92	93	100	101	9
92	93	100	71	9
92	93	94	95	9
92	93	94	97	9
90	91	102	103	9
90	91	102	110	9
90	91	92	96	9
90	95	94	97	9
94	93	100	101	9
94	93	100	71	9
94	93	92	96	9
94	95	90	98	9
98	90	95	99	9
97	94	95	99	9
103	102	110	104	9
103	102	110	111	9
101	100	71	64	9
101	100	71	73	9
4	3	2	13	9
7	3	2	13	9
6	1	2	13	9
9	1	2	13	9
2	3	4	11	9
7	3	4	11	9
6	5	4	11	9
8	5	4	11	9
11	72	62	65	9
11	72	62	61	9
2	3	4	5	9
2	1	6	5	9
2	1	6	10	9
4	11	72	62	9
4	11	72	74	9
1	2	3	4	9
1	6	5	4	9
4	5	6	10	9
3	2	13	15	9
3	2	13	14	9
3	2	1	6	9
3	2	1	9	9
3	4	11	12	9
3	4	11	72	9
3	4	5	6	9
3	4	5	8	9
1	2	13	15	9
1	2	13	14	9
1	2	3	7	9
1	6	5	8	9
5	4	11	12	9
5	4	11	72	9
5	4	3	7	9
5	6	1	9	9
9	1	6	10	9
8	5	6	10	9
12	11	72	62	9
12	11	72	74	9
104	107	108	109	9
104	107	108	115	9
104	105	106	109	9
104	105	106	116	9
106	109	108	107	9
107	108	109	114	9
107	108	115	117	9
106	105	104	107	9
107	104	105	112	9
107	104	110	111	9
105	104	107	108	9
108	107	104	110	9
105	106	109	108	9
108	109	106	116	9
109	108	107	113	9
109	108	115	117	9
109	106	105	112	9
109	106	116	118	9
106	109	108	115	9
106	105	104	110	9
105	106	109	114	9
105	106	116	118	9
105	104	107	113	9
105	104	110	111	9
114	109	106	116	9
112	105	106	116	9
110	104	107	113	9
110	104	105	112	9
113	107	108	115	9
114	109	108	115	9
60	63	64	65	9
60	63	64	71	9
60	61	62	65	9
60	61	62	72	9
63	64	65	62	9
63	64	65	70	9
63	64	71	73	9
63	60	61	62	9
63	60	61	68	9
63	60	66	67	9
64	63	60	61	9
64	63	60	66	9
64	65	62	61	9
64	65	62	72	9
65	64	63	69	9
65	64	71	73	9
65	62	61	68	9
65	62	72	74	9
62	65	64	71	9
62	61	60	66	9
61	62	65	70	9
61	62	72	74	9
61	60	63	69	9
61	60	66	67	9
70	65	62	72	9
68	61	62	72	9
66	60	63	69	9
66	60	61	68	9
69	63	64	71	9
70	65	64	71	9
75	76	77	80	9
75	76	77	87	9
75	78	79	80	9
75	78	79	86	9
76	77	80	79	9
76	77	80	85	9
76	77	87	89	9
76	75	78	79	9
76	75	78	84	9
76	75	81	82	9
77	76	75	78	9
77	76	75	81	9
77	80	79	78	9
77	80	79	86	9
80	77	76	83	9
80	77	87	89	9
80	79	78	84	9
80	79	86	88	9
79	80	77	87	9
79	78	75	81	9
78	79	80	85	9
78	79	86	88	9
78	75	76	83	9
78	75	81	82	9
85	80	79	86	9
84	78	79	86	9
81	75	76	83	9
81	75	78	84	9
83	76	77	87	9
85	80	77	87	9
28	29	17	30	2
27	26	19	81	2
28	18	16	17	2
26	20	18	19	2
22	19	17	18	2
24	21	17	16	2
23	21	19	20	2
25	16	20	21	2
132	131	120	116	2
130	129	122	86	2
131	121	119	120	2
129	123	121	122	2
125	120	122	121	2
127	124	120	119	2
126	124	123	122	2
128	123	124	119	2
42	41	34	87	2
43	44	32	45	2
41	33	34	35	2
43	31	33	32	2
37	32	34	33	2
38	36	34	35	2
39	36	32	31	2
40	36	31	35	2
59	58	47	66	2
57	56	49	115	2
58	46	48	47	2
56	48	50	49	2
52	47	49	48	2
54	47	51	46	2
53	51	49	50	2
55	46	50	51	2
103	102	91	110	2
101	100	93	71	2
102	92	90	91	2
100	92	94	93	2
96	93	91	92	2
98	91	95	90	2
97	93	94	95	2
99	94	90	95	2
13	15	2	14	2
12	11	4	72	2
13	3	1	2	2
11	4	5	3	2
7	2	4	3	2
9	2	6	1	2
8	5	4	6	2
10	5	1	6	2
104	107	105	110	2
113	104	108	107	2
108	107	109	115	2
114	108	106	109	2
106	105	109	116	2
112	104	106	105	2
116	118	106	131	2
110	111	104	102	2
115	117	108	56	2
60	63	61	66	2
69	64	60	63	2
64	65	63	71	2
70	62	64	65	2
62	65	61	72	2
68	60	62	61	2
72	74	62	11	2
66	67	60	58	2
71	73	64	100	2
75	76	78	81	2
83	75	77	76	2
77	76	80	87	2
85	77	79	80	2
79	78	80	86	2
84	75	79	78	2
86	88	79	129	2
81	82	75	26	2
87	89	77	41	2


[ moleculetype ]
; Name	nrexcl
MOL6	3

[ atoms ]
;nr	type	resnr	residue	atom	cgnr	charge	mass
1	CB	1	MPD1	C	1	-0.15	12.011
2	CB	1	MPD1	C1	1	0.1	12.011
3	CB	1	MPD1	C2	1	-0.15	12.011
4	CB	1	MPD1	C3	1	0.117	12.011
5	CB	1	MPD1	C4	1	-0.15	12.011
6	CB	1	MPD1	C5	1	-0.15	12.011
7	HCMM	1	MPD1	H	1	0.15	1.0079
8	HCMM	1	MPD1	H1	1	0.15	1.0079
9	HCMM	1	MPD1	H2	1	0.15	1.0079
10	HCMM	1	MPD1	H3	1	0.15	1.0079
11	NC=O	1	MPD1	N	1	-0.547	14.0067
12	HNCO	1	MPD1	H5	1	0.37	1.0079
13	NC=C	1	MPD1	N1	1	-0.9	14.0067
14	HNCO	1	MPD1	H6	1	0.4	1.0079
15	HNCO	1	MPD1	H7	1	0.4	1.0079
16	CB	2	TMC2	C1	1	0.0862	12.011
17	CB	2	TMC2	C2	1	-0.15	12.011
18	CB	2	TMC2	C3	1	0.0862	12.011
19	CB	2	TMC2	C4	1	-0.15	12.011
20	CB	2	TMC2	C5	1	0.0862	12.011
21	CB	2	TMC2	C6	1	-0.15	12.011
22	C=O	2	TMC2	C	1	0.5438	12.011
23	O=C	2	TMC2	O	1	-0.57	15.9994
24	HCMM	2	TMC2	H	1	0.15	1.0079
25	HCMM	2	TMC2	H1	1	0.15	1.0079
26	HCMM	2	TMC2	H2	1	0.15	1.0079
27	C=O	2	TMC2	C7	1	0.5438	12.011
28	C=O	2	TMC2	C8	1	0.6338	12.011
29	O=C	2	TMC2	O1	1	-0.57	15.9994
30	O=C	2	TMC2	O2	1	-0.57	15.9994
31	OR	2	TMC2	O5	1	-0.65	15.9994
32	HOCO	2	TMC2	H5	1	0.5	1.0079
33	CB	3	MPD1	C	1	-0.15	12.011
34	CB	3	MPD1	C1	1	0.1	12.011
35	CB	3	MPD1	C2	1	-0.15	12.011
36	CB	3	MPD1	C3	1	0.117	12.011
37	CB	3	MPD1	C4	1	-0.15	12.011
38	CB	3	MPD1	C5	1	-0.15	12.011
39	HCMM	3	MPD1	H	1	0.15	1.0079
40	HCMM	3	MPD1	H1	1	0.15	1.0079
41	HCMM	3	MPD1	H2	1	0.15	1.0079
42	HCMM	3	MPD1	H3	1	0.15	1.0079
43	NC=O	3	MPD1	N	1	-0.547	14.0067
44	HNCO	3	MPD1	H5	1	0.37	1.0079
45	NC=C	3	MPD1	N1	1	-0.9	14.0067
46	HNCO	3	MPD1	H6	1	0.4	1.0079
47	HNCO	3	MPD1	H7	1	0.4	1.0079

[ bonds ]
34	45	1
45	46	1
45	47	1
36	43	1
43	44	1
22	43	1
34	35	1
33	34	1
35	36	1
36	37	1
35	39	1
33	38	1
33	41	1
37	38	1
37	40	1
38	42	1
2	13	1
13	15	1
13	14	1
4	11	1
11	12	1
27	11	1
2	3	1
1	2	1
3	4	1
4	5	1
3	7	1
1	6	1
1	9	1
5	6	1
5	8	1
6	10	1
16	17	1
16	19	1
16	22	1
17	18	1
17	24	1
18	21	1
18	28	1
20	21	1
21	26	1
19	20	1
20	27	1
19	25	1
27	29	1
22	23	1
28	30	1
28	31	1
31	32	1

[ angles ]
35	34	45	1
33	34	45	1
35	36	43	1
37	36	43	1
16	22	43	1
23	22	43	1
34	45	46	1
34	45	47	1
34	35	36	1
34	35	39	1
34	33	38	1
34	33	41	1
36	43	44	1
22	43	36	1
36	35	39	1
36	37	38	1
36	37	40	1
33	34	35	1
35	36	37	1
33	38	37	1
33	38	42	1
37	38	42	1
38	33	41	1
38	37	40	1
46	45	47	1
22	43	44	1
3	2	13	1
1	2	13	1
3	4	11	1
5	4	11	1
20	27	11	1
29	27	11	1
2	13	15	1
2	13	14	1
2	3	4	1
2	3	7	1
2	1	6	1
2	1	9	1
4	11	12	1
27	11	4	1
4	3	7	1
4	5	6	1
4	5	8	1
1	2	3	1
3	4	5	1
1	6	5	1
1	6	10	1
5	6	10	1
6	1	9	1
6	5	8	1
15	13	14	1
27	11	12	1
16	17	18	1
16	17	24	1
16	19	20	1
16	19	25	1
16	22	23	1
17	18	21	1
17	18	28	1
17	16	19	1
17	16	22	1
18	17	24	1
18	21	20	1
18	21	26	1
18	28	30	1
18	28	31	1
21	18	28	1
19	20	21	1
21	20	27	1
20	21	26	1
20	19	25	1
20	27	29	1
19	20	27	1
19	16	22	1
28	31	32	1
30	28	31	1

[ dihedrals ]
36	35	34	45	9
39	35	34	45	9
38	33	34	45	9
41	33	34	45	9
34	35	36	43	9
39	35	36	43	9
38	37	36	43	9
40	37	36	43	9
17	16	22	43	9
19	16	22	43	9
34	35	36	37	9
34	33	38	37	9
34	33	38	42	9
16	22	43	36	9
23	22	43	36	9
33	34	35	36	9
33	38	37	36	9
36	37	38	42	9
35	34	45	46	9
35	34	45	47	9
35	34	33	38	9
35	34	33	41	9
35	36	43	44	9
22	43	36	35	9
35	36	37	38	9
35	36	37	40	9
33	34	45	46	9
33	34	45	47	9
33	34	35	39	9
33	38	37	40	9
37	36	43	44	9
22	43	36	37	9
37	36	35	39	9
37	38	33	41	9
41	33	38	42	9
40	37	38	42	9
16	22	43	44	9
23	22	43	44	9
4	3	2	13	9
7	3	2	13	9
6	1	2	13	9
9	1	2	13	9
2	3	4	11	9
7	3	4	11	9
6	5	4	11	9
8	5	4	11	9
21	20	27	11	9
19	20	27	11	9
2	3	4	5	9
2	1	6	5	9
2	1	6	10	9
20	27	11	4	9
29	27	11	4	9
1	2	3	4	9
1	6	5	4	9
4	5	6	10	9
3	2	13	15	9
3	2	13	14	9
3	2	1	6	9
3	2	1	9	9
3	4	11	12	9
27	11	4	3	9
3	4	5	6	9
3	4	5	8	9
1	2	13	15	9
1	2	13	14	9
1	2	3	7	9
1	6	5	8	9
5	4	11	12	9
27	11	4	5	9
5	4	3	7	9
5	6	1	9	9
9	1	6	10	9
8	5	6	10	9
20	27	11	12	9
29	27	11	12	9
16	17	18	21	9
16	17	18	28	9
16	19	20	21	9
16	19	20	27	9
17	18	21	20	9
17	18	21	26	9
17	18	28	30	9
17	18	28	31	9
17	16	19	20	9
17	16	19	25	9
17	16	22	23	9
18	17	16	19	9
18	17	16	22	9
18	21	20	19	9
18	21	20	27	9
18	28	31	32	9
21	18	17	24	9
21	18	28	30	9
21	18	28	31	9
21	20	19	25	9
21	20	27	29	9
20	21	18	28	9
20	19	16	22	9
19	20	21	26	9
19	20	27	29	9
19	16	17	24	9
19	16	22	23	9
26	21	20	27	9
25	19	20	27	9
22	16	17	24	9
22	16	19	25	9
24	17	18	28	9
26	21	18	28	9
30	28	31	32	9
45	46	34	47	2
44	43	36	22	2
45	35	33	34	2
43	37	35	36	2
39	36	34	35	2
41	34	38	33	2
40	38	36	37	2
42	33	37	38	2
13	14	2	15	2
12	11	4	27	2
13	1	3	2	2
11	5	3	4	2
7	2	4	3	2
9	2	6	1	2
8	4	6	5	2
10	1	5	6	2
16	19	17	22	2
24	18	16	17	2
18	17	21	28	2
26	20	18	21	2
20	19	21	27	2
25	16	20	19	2
27	29	20	11	2
22	23	16	43	2
28	30	18	31	2


[ moleculetype ]
; Name	nrexcl
MOL7	3

[ atoms ]
;nr	type	resnr	residue	atom	cgnr	charge	mass
1	OR	1	TCq1	O1	1	-0.65	15.9994
2	C=O	1	TCq1	C1	1	0.6338	12.011
3	O=C	1	TCq1	O2	1	-0.57	15.9994
4	CB	1	TCq1	C2	1	0.0862	12.011
5	CB	1	TCq1	C3	1	-0.15	12.011
6	CB	1	TCq1	C4	1	-0.179	12.011
7	CB	1	TCq1	C5	1	-0.15	12.011
8	CB	1	TCq1	C6	1	0.0862	12.011
9	CB	1	TCq1	C7	1	-0.15	12.011
10	C=O	1	TCq1	C8	1	0.5438	12.011
11	O=C	1	TCq1	O4	1	-0.57	15.9994
12	CO2M	1	TCq1	C9	1	0.979	12.011
13	O2CM	1	TCq1	O5	1	-0.9	15.9994
14	O2CM	1	TCq1	O6	1	-0.9	15.9994
15	HOCO	1	TCq1	H1	1	0.5	1.0079
16	HCMM	1	TCq1	H2	1	0.15	1.0079
17	HCMM	1	TCq1	H3	1	0.15	1.0079
18	HCMM	1	TCq1	H4	1	0.15	1.0079
19	CB	2	MPD2	C	1	-0.15	12.011
20	CB	2	MPD2	C1	1	0.117	12.011
21	CB	2	MPD2	C2	1	-0.15	12.011
22	CB	2	MPD2	C3	1	0.117	12.011
23	CB	2	MPD2	C4	1	-0.15	12.011
24	CB	2	MPD2	C5	1	-0.15	12.011
25	HCMM	2	MPD2	H	1	0.15	1.0079
26	HCMM	2	MPD2	H1	1	0.15	1.0079
27	HCMM	2	MPD2	H2	1	0.15	1.0079
28	HCMM	2	MPD2	H3	1	0.15	1.0079
29	NC=O	2	MPD2	N	1	-0.547	14.0067
30	HNCO	2	MPD2	H5	1	0.37	1.0079
31	NC=O	2	MPD2	N1	1	-0.547	14.0067
32	HNCO	2	MPD2	H7	1	0.37	1.0079
33	OR	3	TCq1	O1	1	-0.65	15.9994
34	C=O	3	TCq1	C1	1	0.6338	12.011
35	O=C	3	TCq1	O2	1	-0.57	15.9994
36	CB	3	TCq1	C2	1	0.0862	12.011
37	CB	3	TCq1	C3	1	-0.15	12.011
38	CB	3	TCq1	C4	1	-0.179	12.011
39	CB	3	TCq1	C5	1	-0.15	12.011
40	CB	3	TCq1	C6	1	0.0862	12.011
41	CB	3	TCq1	C7	1	-0.15	12.011
42	C=O	3	TCq1	C8	1	0.5438	12.011
43	O=C	3	TCq1	O4	1	-0.57	15.9994
44	CO2M	3	TCq1	C9	1	0.979	12.011
45	O2CM	3	TCq1	O5	1	-0.9	15.9994
46	O2CM	3	TCq1	O6	1	-0.9	15.9994
47	HOCO	3	TCq1	H1	1	0.5	1.0079
48	HCMM	3	TCq1	H2	1	0.15	1.0079
49	HCMM	3	TCq1	H3	1	0.15	1.0079
50	HCMM	3	TCq1	H4	1	0.15	1.0079

[ bonds ]
20	31	1
31	32	1
10	31	1
22	29	1
29	30	1
42	29	1
20	21	1
19	20	1
21	22	1
22	23	1
21	25	1
19	24	1
19	27	1
23	24	1
23	26	1
24	28	1
39	38	1
38	37	1
38	44	1
40	39	1
39	49	1
40	41	1
40	42	1
41	36	1
41	50	1
36	37	1
36	34	1
37	48	1
34	35	1
34	33	1
44	45	1
44	46	1
42	43	1
33	47	1
9	4	1
4	5	1
4	2	1
8	9	1
9	18	1
8	7	1
8	10	1
7	6	1
7	17	1
6	5	1
6	12	1
5	16	1
12	13	1
12	14	1
2	3	1
2	1	1
10	11	1
1	15	1

[ angles ]
21	20	31	1
19	20	31	1
8	10	31	1
11	10	31	1
21	22	29	1
23	22	29	1
40	42	29	1
43	42	29	1
20	31	32	1
10	31	20	1
20	21	22	1
20	21	25	1
20	19	24	1
20	19	27	1
22	29	30	1
42	29	22	1
22	21	25	1
22	23	24	1
22	23	26	1
19	20	21	1
21	22	23	1
19	24	23	1
19	24	28	1
23	24	28	1
24	19	27	1
24	23	26	1
10	31	32	1
42	29	30	1
40	39	38	1
38	39	49	1
38	37	36	1
38	37	48	1
38	44	45	1
38	44	46	1
39	40	41	1
39	40	42	1
39	38	37	1
39	38	44	1
40	39	49	1
40	41	36	1
40	41	50	1
40	42	43	1
41	40	42	1
41	36	37	1
41	36	34	1
36	41	50	1
36	37	48	1
36	34	35	1
36	34	33	1
37	36	34	1
37	38	44	1
34	33	47	1
35	34	33	1
45	44	46	1
8	9	4	1
4	9	18	1
6	5	4	1
4	5	16	1
4	2	3	1
4	2	1	1
7	8	9	1
9	8	10	1
9	4	5	1
9	4	2	1
8	9	18	1
8	7	6	1
8	7	17	1
8	10	11	1
7	8	10	1
7	6	5	1
7	6	12	1
6	7	17	1
6	5	16	1
6	12	13	1
6	12	14	1
5	6	12	1
5	4	2	1
2	1	15	1
13	12	14	1
3	2	1	1

[ dihedrals ]
22	21	20	31	9
25	21	20	31	9
24	19	20	31	9
27	19	20	31	9
9	8	10	31	9
7	8	10	31	9
20	21	22	29	9
25	21	22	29	9
24	23	22	29	9
26	23	22	29	9
39	40	42	29	9
41	40	42	29	9
8	10	31	20	9
11	10	31	20	9
20	21	22	23	9
20	19	24	23	9
20	19	24	28	9
40	42	29	22	9
43	42	29	22	9
19	20	21	22	9
19	24	23	22	9
22	23	24	28	9
21	20	31	32	9
10	31	20	21	9
21	20	19	24	9
21	20	19	27	9
21	22	29	30	9
42	29	22	21	9
21	22	23	24	9
21	22	23	26	9
19	20	31	32	9
10	31	20	19	9
19	20	21	25	9
19	24	23	26	9
23	22	29	30	9
42	29	22	23	9
23	22	21	25	9
23	24	19	27	9
27	19	24	28	9
26	23	24	28	9
8	10	31	32	9
11	10	31	32	9
40	42	29	30	9
43	42	29	30	9
38	39	40	41	9
38	39	40	42	9
38	37	36	41	9
38	37	36	34	9
39	40	41	36	9
39	40	41	50	9
39	40	42	43	9
39	38	37	36	9
39	38	37	48	9
39	38	44	45	9
39	38	44	46	9
40	39	38	37	9
40	39	38	44	9
40	41	36	37	9
40	41	36	34	9
41	40	39	49	9
41	40	42	43	9
41	36	37	48	9
41	36	34	35	9
41	36	34	33	9
36	41	40	42	9
36	37	38	44	9
36	34	33	47	9
37	36	41	50	9
37	36	34	35	9
37	36	34	33	9
37	38	39	49	9
37	38	44	45	9
37	38	44	46	9
50	41	36	34	9
48	37	36	34	9
49	39	38	44	9
48	37	38	44	9
42	40	39	49	9
42	40	41	50	9
35	34	33	47	9
7	8	9	4	9
4	9	8	10	9
7	6	5	4	9
4	5	6	12	9
4	2	1	15	9
6	7	8	9	9
9	8	7	17	9
9	8	10	11	9
6	5	4	9	9
9	4	5	16	9
9	4	2	3	9
9	4	2	1	9
8	9	4	5	9
8	9	4	2	9
8	7	6	5	9
8	7	6	12	9
7	8	9	18	9
7	8	10	11	9
7	6	5	16	9
7	6	12	13	9
7	6	12	14	9
6	7	8	10	9
6	5	4	2	9
5	6	7	17	9
5	6	12	13	9
5	6	12	14	9
5	4	9	18	9
5	4	2	3	9
5	4	2	1	9
17	7	6	12	9
16	5	6	12	9
18	9	4	2	9
16	5	4	2	9
10	8	9	18	9
10	8	7	17	9
3	2	1	15	9
32	31	20	10	2
30	29	22	42	2
31	19	21	20	2
29	21	23	22	2
25	22	20	21	2
27	24	20	19	2
26	22	24	23	2
28	23	19	24	2
38	37	39	44	2
49	38	40	39	2
40	39	41	42	2
50	36	40	41	2
36	37	41	34	2
48	38	36	37	2
34	35	36	33	2
44	46	38	45	2
42	43	40	29	2
4	5	9	2	2
18	8	4	9	2
8	7	9	10	2
17	6	8	7	2
6	7	5	12	2
16	6	4	5	2
12	14	6	13	2
2	3	4	1	2
10	11	8	31	2


[ moleculetype ]
; Name	nrexcl
MOL8	3

[ atoms ]
;nr	type	resnr	residue	atom	cgnr	charge	mass
1	CB	1	MPD2	C	1	-0.15	12.011
2	CB	1	MPD2	C1	1	0.117	12.011
3	CB	1	MPD2	C2	1	-0.15	12.011
4	CB	1	MPD2	C3	1	0.117	12.011
5	CB	1	MPD2	C4	1	-0.15	12.011
6	CB	1	MPD2	C5	1	-0.15	12.011
7	HCMM	1	MPD2	H	1	0.15	1.0079
8	HCMM	1	MPD2	H1	1	0.15	1.0079
9	HCMM	1	MPD2	H2	1	0.15	1.0079
10	HCMM	1	MPD2	H3	1	0.15	1.0079
11	NC=O	1	MPD2	N	1	-0.547	14.0067
12	HNCO	1	MPD2	H5	1	0.37	1.0079
13	NC=O	1	MPD2	N1	1	-0.547	14.0067
14	HNCO	1	MPD2	H7	1	0.37	1.0079
15	CB	2	TMC3	C1	1	0.0862	12.011
16	CB	2	TMC3	C2	1	-0.15	12.011
17	CB	2	TMC3	C3	1	0.0862	12.011
18	CB	2	TMC3	C4	1	-0.15	12.011
19	CB	2	TMC3	C5	1	0.0862	12.011
20	CB	2	TMC3	C6	1	-0.15	12.011
21	C=O	2	TMC3	C	1	0.5438	12.011
22	O=C	2	TMC3	O	1	-0.57	15.9994
23	HCMM	2	TMC3	H	1	0.15	1.0079
24	HCMM	2	TMC3	H1	1	0.15	1.0079
25	HCMM	2	TMC3	H2	1	0.15	1.0079
26	C=O	2	TMC3	C7	1	0.5438	12.011
27	C=O	2	TMC3	C8	1	0.5438	12.011
28	O=C	2	TMC3	O1	1	-0.57	15.9994
29	O=C	2	TMC3	O2	1	-0.57	15.9994
30	OR	3	TCq1	O1	1	-0.65	15.9994
31	C=O	3	TCq1	C1	1	0.6338	12.011
32	O=C	3	TCq1	O2	1	-0.57	15.9994
33	CB	3	TCq1	C2	1	0.0862	12.011
34	CB	3	TCq1	C3	1	-0.15	12.011
35	CB	3	TCq1	C4	1	-0.179	12.011
36	CB	3	TCq1	C5	1	-0.15	12.011
37	CB	3	TCq1	C6	1	0.0862	12.011
38	CB	3	TCq1	C7	1	-0.15	12.011
39	C=O	3	TCq1	C8	1	0.5438	12.011
40	O=C	3	TCq1	O4	1	-0.57	15.9994
41	CO2M	3	TCq1	C9	1	0.979	12.011
42	O2CM	3	TCq1	O5	1	-0.9	15.9994
43	O2CM	3	TCq1	O6	1	-0.9	15.9994
44	HOCO	3	TCq1	H1	1	0.5	1.0079
45	HCMM	3	TCq1	H2	1	0.15	1.0079
46	HCMM	3	TCq1	H3	1	0.15	1.0079
47	HCMM	3	TCq1	H4	1	0.15	1.0079
48	CB	4	MPD2	C	1	-0.15	12.011
49	CB	4	MPD2	C1	1	0.117	12.011
50	CB	4	MPD2	C2	1	-0.15	12.011
51	CB	4	MPD2	C3	1	0.117	12.011
52	CB	4	MPD2	C4	1	-0.15	12.011
53	CB	4	MPD2	C5	1	-0.15	12.011
54	HCMM	4	MPD2	H	1	0.15	1.0079
55	HCMM	4	MPD2	H1	1	0.15	1.0079
56	HCMM	4	MPD2	H2	1	0.15	1.0079
57	HCMM	4	MPD2	H3	1	0.15	1.0079
58	NC=O	4	MPD2	N	1	-0.547	14.0067
59	HNCO	4	MPD2	H5	1	0.37	1.0079
60	NC=O	4	MPD2	N1	1	-0.547	14.0067
61	HNCO	4	MPD2	H7	1	0.37	1.0079
62	CB	5	MPD2	C	1	-0.15	12.011
63	CB	5	MPD2	C1	1	0.117	12.011
64	CB	5	MPD2	C2	1	-0.15	12.011
65	CB	5	MPD2	C3	1	0.117	12.011
66	CB	5	MPD2	C4	1	-0.15	12.011
67	CB	5	MPD2	C5	1	-0.15	12.011
68	HCMM	5	MPD2	H	1	0.15	1.0079
69	HCMM	5	MPD2	H1	1	0.15	1.0079
70	HCMM	5	MPD2	H2	1	0.15	1.0079
71	HCMM	5	MPD2	H3	1	0.15	1.0079
72	NC=O	5	MPD2	N	1	-0.547	14.0067
73	HNCO	5	MPD2	H5	1	0.37	1.0079
74	NC=O	5	MPD2	N1	1	-0.547	14.0067
75	HNCO	5	MPD2	H7	1	0.37	1.0079
76	C=O	6	TCq2	C1	1	0.5438	12.011
77	O=C	6	TCq2	O2	1	-0.57	15.9994
78	CB	6	TCq2	C2	1	0.0862	12.011
79	CB	6	TCq2	C3	1	-0.15	12.011
80	CB	6	TCq2	C4	1	-0.179	12.011
81	CB	6	TCq2	C5	1	-0.15	12.011
82	CB	6	TCq2	C6	1	0.0862	12.011
83	CB	6	TCq2	C7	1	-0.15	12.011
84	C=O	6	TCq2	C8	1	0.5438	12.011
85	O=C	6	TCq2	O4	1	-0.57	15.9994
86	CO2M	6	TCq2	C9	1	0.979	12.011
87	O2CM	6	TCq2	O5	1	-0.9	15.9994
88	O2CM	6	TCq2	O6	1	-0.9	15.9994
89	HCMM	6	TCq2	H2	1	0.15	1.0079
90	HCMM	6	TCq2	H3	1	0.15	1.0079
91	HCMM	6	TCq2	H4	1	0.15	1.0079

[ bonds ]
2	13	1
13	14	1
13	21	1
4	11	1
11	12	1
84	11	1
2	3	1
1	2	1
3	4	1
4	5	1
3	7	1
1	6	1
1	9	1
5	6	1
5	8	1
6	10	1
65	72	1
72	73	1
76	72	1
63	74	1
74	75	1
74	27	1
65	64	1
66	65	1
64	63	1
63	62	1
64	68	1
66	67	1
66	69	1
62	67	1
62	70	1
67	71	1
49	60	1
60	61	1
39	60	1
51	58	1
58	59	1
58	26	1
49	50	1
48	49	1
50	51	1
51	52	1
50	54	1
48	53	1
48	56	1
52	53	1
52	55	1
53	57	1
36	35	1
35	34	1
35	41	1
37	36	1
36	46	1
37	38	1
37	39	1
38	33	1
38	47	1
33	34	1
33	31	1
34	45	1
31	32	1
31	30	1
41	42	1
41	43	1
39	40	1
30	44	1
82	81	1
83	82	1
82	84	1
80	81	1
81	90	1
79	80	1
80	86	1
78	79	1
79	89	1
78	83	1
78	76	1
83	91	1
76	77	1
84	85	1
86	87	1
86	88	1
15	16	1
15	18	1
15	21	1
16	17	1
16	23	1
17	20	1
17	27	1
19	20	1
20	25	1
18	19	1
19	26	1
18	24	1
26	28	1
21	22	1
27	29	1

[ angles ]
3	2	13	1
1	2	13	1
13	21	15	1
13	21	22	1
3	4	11	1
5	4	11	1
82	84	11	1
85	84	11	1
2	13	14	1
2	13	21	1
2	3	4	1
2	3	7	1
2	1	6	1
2	1	9	1
4	11	12	1
84	11	4	1
4	3	7	1
4	5	6	1
4	5	8	1
1	2	3	1
3	4	5	1
1	6	5	1
1	6	10	1
5	6	10	1
6	1	9	1
6	5	8	1
14	13	21	1
84	11	12	1
64	65	72	1
66	65	72	1
78	76	72	1
77	76	72	1
64	63	74	1
62	63	74	1
74	27	17	1
74	27	29	1
65	72	73	1
76	72	65	1
65	64	63	1
65	64	68	1
65	66	67	1
65	66	69	1
63	74	75	1
63	74	27	1
63	64	68	1
63	62	67	1
63	62	70	1
66	65	64	1
64	63	62	1
66	67	62	1
66	67	71	1
62	67	71	1
67	66	69	1
67	62	70	1
76	72	73	1
75	74	27	1
50	49	60	1
48	49	60	1
37	39	60	1
40	39	60	1
50	51	58	1
52	51	58	1
58	26	19	1
58	26	28	1
49	60	61	1
39	60	49	1
49	50	51	1
49	50	54	1
49	48	53	1
49	48	56	1
51	58	59	1
51	58	26	1
51	50	54	1
51	52	53	1
51	52	55	1
48	49	50	1
50	51	52	1
48	53	52	1
48	53	57	1
52	53	57	1
53	48	56	1
53	52	55	1
39	60	61	1
59	58	26	1
37	36	35	1
35	36	46	1
35	34	33	1
35	34	45	1
35	41	42	1
35	41	43	1
36	37	38	1
36	37	39	1
36	35	34	1
36	35	41	1
37	36	46	1
37	38	33	1
37	38	47	1
37	39	40	1
38	37	39	1
38	33	34	1
38	33	31	1
33	38	47	1
33	34	45	1
33	31	32	1
33	31	30	1
34	33	31	1
34	35	41	1
31	30	44	1
32	31	30	1
42	41	43	1
80	81	82	1
82	81	90	1
78	83	82	1
82	83	91	1
82	84	85	1
79	80	81	1
81	80	86	1
83	82	81	1
81	82	84	1
80	81	90	1
78	79	80	1
80	79	89	1
80	86	87	1
80	86	88	1
79	80	86	1
79	78	83	1
79	78	76	1
78	79	89	1
78	83	91	1
78	76	77	1
83	78	76	1
83	82	84	1
87	86	88	1
15	16	17	1
15	16	23	1
15	18	19	1
15	18	24	1
15	21	22	1
16	17	20	1
16	17	27	1
16	15	18	1
16	15	21	1
17	16	23	1
17	20	19	1
17	20	25	1
17	27	29	1
20	17	27	1
18	19	20	1
20	19	26	1
19	20	25	1
19	18	24	1
19	26	28	1
18	19	26	1
18	15	21	1

[ dihedrals ]
4	3	2	13	9
7	3	2	13	9
6	1	2	13	9
9	1	2	13	9
13	21	15	16	9
13	21	15	18	9
2	3	4	11	9
7	3	4	11	9
6	5	4	11	9
8	5	4	11	9
81	82	84	11	9
83	82	84	11	9
2	13	21	15	9
2	13	21	22	9
2	3	4	5	9
2	1	6	5	9
2	1	6	10	9
82	84	11	4	9
85	84	11	4	9
1	2	3	4	9
1	6	5	4	9
4	5	6	10	9
3	2	13	14	9
3	2	13	21	9
3	2	1	6	9
3	2	1	9	9
3	4	11	12	9
84	11	4	3	9
3	4	5	6	9
3	4	5	8	9
1	2	13	14	9
1	2	13	21	9
1	2	3	7	9
1	6	5	8	9
5	4	11	12	9
84	11	4	5	9
5	4	3	7	9
5	6	1	9	9
9	1	6	10	9
8	5	6	10	9
14	13	21	15	9
14	13	21	22	9
82	84	11	12	9
85	84	11	12	9
63	64	65	72	9
68	64	65	72	9
67	66	65	72	9
69	66	65	72	9
79	78	76	72	9
83	78	76	72	9
65	64	63	74	9
68	64	63	74	9
67	62	63	74	9
70	62	63	74	9
74	27	17	16	9
74	27	17	20	9
78	76	72	65	9
77	76	72	65	9
65	64	63	62	9
65	66	67	62	9
65	66	67	71	9
63	74	27	17	9
63	74	27	29	9
66	65	64	63	9
66	67	62	63	9
63	62	67	71	9
64	65	72	73	9
76	72	65	64	9
64	65	66	67	9
64	65	66	69	9
64	63	74	75	9
64	63	74	27	9
64	63	62	67	9
64	63	62	70	9
66	65	72	73	9
76	72	65	66	9
66	65	64	68	9
66	67	62	70	9
62	63	74	75	9
62	63	74	27	9
62	63	64	68	9
62	67	66	69	9
69	66	67	71	9
70	62	67	71	9
78	76	72	73	9
77	76	72	73	9
75	74	27	17	9
75	74	27	29	9
51	50	49	60	9
54	50	49	60	9
53	48	49	60	9
56	48	49	60	9
36	37	39	60	9
38	37	39	60	9
49	50	51	58	9
54	50	51	58	9
53	52	51	58	9
55	52	51	58	9
58	26	19	20	9
58	26	19	18	9
37	39	60	49	9
40	39	60	49	9
49	50	51	52	9
49	48	53	52	9
49	48	53	57	9
51	58	26	19	9
51	58	26	28	9
48	49	50	51	9
48	53	52	51	9
51	52	53	57	9
50	49	60	61	9
39	60	49	50	9
50	49	48	53	9
50	49	48	56	9
50	51	58	59	9
50	51	58	26	9
50	51	52	53	9
50	51	52	55	9
48	49	60	61	9
39	60	49	48	9
48	49	50	54	9
48	53	52	55	9
52	51	58	59	9
52	51	58	26	9
52	51	50	54	9
52	53	48	56	9
56	48	53	57	9
55	52	53	57	9
37	39	60	61	9
40	39	60	61	9
59	58	26	19	9
59	58	26	28	9
35	36	37	38	9
35	36	37	39	9
35	34	33	38	9
35	34	33	31	9
36	37	38	33	9
36	37	38	47	9
36	37	39	40	9
36	35	34	33	9
36	35	34	45	9
36	35	41	42	9
36	35	41	43	9
37	36	35	34	9
37	36	35	41	9
37	38	33	34	9
37	38	33	31	9
38	37	36	46	9
38	37	39	40	9
38	33	34	45	9
38	33	31	32	9
38	33	31	30	9
33	38	37	39	9
33	34	35	41	9
33	31	30	44	9
34	33	38	47	9
34	33	31	32	9
34	33	31	30	9
34	35	36	46	9
34	35	41	42	9
34	35	41	43	9
47	38	33	31	9
45	34	33	31	9
46	36	35	41	9
45	34	35	41	9
39	37	36	46	9
39	37	38	47	9
32	31	30	44	9
79	80	81	82	9
82	81	80	86	9
79	78	83	82	9
82	83	78	76	9
78	79	80	81	9
81	80	79	89	9
81	80	86	87	9
81	80	86	88	9
78	83	82	81	9
81	82	83	91	9
81	82	84	85	9
80	81	82	83	9
80	81	82	84	9
80	79	78	83	9
80	79	78	76	9
79	80	81	90	9
79	80	86	87	9
79	80	86	88	9
79	78	83	91	9
79	78	76	77	9
78	79	80	86	9
78	83	82	84	9
83	78	79	89	9
83	78	76	77	9
83	82	81	90	9
83	82	84	85	9
76	78	79	89	9
76	78	83	91	9
90	81	82	84	9
91	83	82	84	9
90	81	80	86	9
89	79	80	86	9
15	16	17	20	9
15	16	17	27	9
15	18	19	20	9
15	18	19	26	9
16	17	20	19	9
16	17	20	25	9
16	17	27	29	9
16	15	18	19	9
16	15	18	24	9
16	15	21	22	9
17	16	15	18	9
17	16	15	21	9
17	20	19	18	9
17	20	19	26	9
20	17	16	23	9
20	17	27	29	9
20	19	18	24	9
20	19	26	28	9
19	20	17	27	9
19	18	15	21	9
18	19	20	25	9
18	19	26	28	9
18	15	16	23	9
18	15	21	22	9
25	20	19	26	9
24	18	19	26	9
21	15	16	23	9
21	15	18	24	9
23	16	17	27	9
25	20	17	27	9
14	13	2	21	2
12	11	4	84	2
13	3	1	2	2
11	3	5	4	2
7	2	4	3	2
9	2	6	1	2
8	4	6	5	2
10	5	1	6	2
73	72	65	76	2
75	74	63	27	2
72	66	64	65	2
74	62	64	63	2
68	63	65	64	2
69	67	65	66	2
70	63	67	62	2
71	66	62	67	2
61	60	49	39	2
59	58	51	26	2
60	50	48	49	2
58	50	52	51	2
54	49	51	50	2
56	49	53	48	2
55	53	51	52	2
57	48	52	53	2
35	34	36	41	2
46	35	37	36	2
37	38	36	39	2
47	33	37	38	2
33	38	34	31	2
45	33	35	34	2
31	32	33	30	2
41	43	35	42	2
39	40	37	60	2
82	81	83	84	2
90	82	80	81	2
80	81	79	86	2
89	80	78	79	2
78	79	83	76	2
91	78	82	83	2
76	77	78	72	2
84	85	82	11	2
86	88	80	87	2
15	16	18	21	2
23	15	17	16	2
17	16	20	27	2
25	19	17	20	2
19	18	20	26	2
24	15	19	18	2
26	28	19	58	2
21	22	15	13	2
27	29	17	74	2


[ system ]
Membrane in water

; Include topology parameters 
#include "oplsaa.ff/tip3p.itp" 

; Include topology parameters 
#include "oplsaa.ff/ions.itp" 


[ molecules ]
MOL1	1
MOL2	1
MOL3	1
MOL4	2
MOL5	1
MOL6	1
MOL7	1
MOL8	1
SOL         16757
RB               28
